
     Program PWSCF v.6.4.1 starts on 23Sep2021 at 17: 5:17 

     This program is part of the open-source Quantum ESPRESSO suite
     for quantum simulation of materials; please cite
         "P. Giannozzi et al., J. Phys.:Condens. Matter 21 395502 (2009);
         "P. Giannozzi et al., J. Phys.:Condens. Matter 29 465901 (2017);
          URL http://www.quantum-espresso.org", 
     in publications or presentations arising from this work. More details at
     http://www.quantum-espresso.org/quote

     Parallel version (MPI), running on    48 processors

     MPI processes distributed on     1 nodes
     K-points division:     npool     =      12
     R & G space division:  proc/nbgrp/npool/nimage =       4
     Reading input from nscf.in

     Current dimensions of program PWSCF are:
     Max number of different atomic species (ntypx) = 10
     Max number of k-points (npk) =  40000
     Max angular momentum in pseudopotentials (lmaxx) =  3

     Atomic positions and unit cell read from directory:
     ./out/MgB2.save/
 

     Subspace diagonalization in iterative solution of the eigenvalue problem:
     a serial algorithm will be used

 
     Parallelization info
     --------------------
     sticks:   dense  smooth     PW     G-vecs:    dense   smooth      PW
     Min         192     192     73                 5064     5064    1151
     Max         193     193     74                 5067     5067    1154
     Sum         769     769    295                20259    20259    4613
 


     bravais-lattice index     =            0
     lattice parameter (alat)  =       5.8084  a.u.
     unit-cell volume          =     195.1435 (a.u.)^3
     number of atoms/cell      =            3
     number of atomic types    =            2
     number of electrons       =        16.00
     number of Kohn-Sham states=           13
     kinetic-energy cutoff     =      84.0000  Ry
     charge density cutoff     =     336.0000  Ry
     Exchange-correlation      = PBESOL ( 1  4 10  8 0 0)

     celldm(1)=   5.808413  celldm(2)=   0.000000  celldm(3)=   0.000000
     celldm(4)=   0.000000  celldm(5)=   0.000000  celldm(6)=   0.000000

     crystal axes: (cart. coord. in units of alat)
               a(1) = (   1.000000   0.000000   0.000000 )  
               a(2) = (  -0.500000   0.866025   0.000000 )  
               a(3) = (   0.000000   0.000000   1.149876 )  

     reciprocal axes: (cart. coord. in units 2 pi/alat)
               b(1) = (  1.000000  0.577350  0.000000 )  
               b(2) = (  0.000000  1.154701  0.000000 )  
               b(3) = (  0.000000  0.000000  0.869659 )  


     PseudoPot. # 1 for B  read from file:
     /home/whzhang/work/packages/pseudo/ONCV_PBEsol/B.upf
     MD5 check sum: be15a878c2da379e54c8795061d47fed
     Pseudo is Norm-conserving + core correction, Zval =  3.0
     Generated using ONCVPSP code by D. R. Hamann
     Using radial grid of 1534 points,  4 beta functions with: 
                l(1) =   0
                l(2) =   0
                l(3) =   1
                l(4) =   1

     PseudoPot. # 2 for Mg read from file:
     /home/whzhang/work/packages/pseudo/ONCV_PBEsol/Mg.upf
     MD5 check sum: 8d9660e82b429ef3f9a30ab680ac0db1
     Pseudo is Norm-conserving, Zval = 10.0
     Generated using ONCVPSP code by D. R. Hamann
     Using radial grid of 1510 points,  4 beta functions with: 
                l(1) =   0
                l(2) =   0
                l(3) =   1
                l(4) =   1

     atomic species   valence    mass     pseudopotential
        B              3.00    10.81000     B ( 1.00)
        Mg            10.00    24.30000     Mg( 1.00)

     Starting magnetic structure 
     atomic species   magnetization
        B            0.000
        Mg           0.000

     No symmetry found


                                    s                        frac. trans.

      isym =  1     identity                                     

 cryst.   s( 1) = (     1          0          0      )
                  (     0          1          0      )
                  (     0          0          1      )

 cart.    s( 1) = (  1.0000000  0.0000000  0.0000000 )
                  (  0.0000000  1.0000000  0.0000000 )
                  (  0.0000000  0.0000000  1.0000000 )


   Cartesian axes

     site n.     atom                  positions (alat units)
         1           Mg  tau(   1) = (   0.0000000   0.0000000   0.0000000  )
         2           B   tau(   2) = (  -0.0000000   0.5773503   0.5749379  )
         3           B   tau(   3) = (   0.5000000   0.2886751   0.5749379  )

   Crystallographic axes

     site n.     atom                  positions (cryst. coord.)
         1           Mg  tau(   1) = (  0.0000000  0.0000000  0.0000000  )
         2           B   tau(   2) = (  0.3333333  0.6666667  0.5000000  )
         3           B   tau(   3) = (  0.6666667  0.3333333  0.5000000  )

     number of k points=   320  Methfessel-Paxton smearing, width (Ry)=  0.0010
                       cart. coord. in units 2pi/alat
        k(    1) = (   0.0000000   0.0000000   0.0000000), wk =   0.0031250
        k(    2) = (   0.0000000   0.0000000   0.1739318), wk =   0.0031250
        k(    3) = (   0.0000000   0.0000000   0.3478637), wk =   0.0031250
        k(    4) = (   0.0000000   0.0000000   0.5217955), wk =   0.0031250
        k(    5) = (   0.0000000   0.0000000   0.6957274), wk =   0.0031250
        k(    6) = (   0.0000000   0.1443376   0.0000000), wk =   0.0031250
        k(    7) = (   0.0000000   0.1443376   0.1739318), wk =   0.0031250
        k(    8) = (   0.0000000   0.1443376   0.3478637), wk =   0.0031250
        k(    9) = (   0.0000000   0.1443376   0.5217955), wk =   0.0031250
        k(   10) = (   0.0000000   0.1443376   0.6957274), wk =   0.0031250
        k(   11) = (   0.0000000   0.2886751   0.0000000), wk =   0.0031250
        k(   12) = (   0.0000000   0.2886751   0.1739318), wk =   0.0031250
        k(   13) = (   0.0000000   0.2886751   0.3478637), wk =   0.0031250
        k(   14) = (   0.0000000   0.2886751   0.5217955), wk =   0.0031250
        k(   15) = (   0.0000000   0.2886751   0.6957274), wk =   0.0031250
        k(   16) = (   0.0000000   0.4330127   0.0000000), wk =   0.0031250
        k(   17) = (   0.0000000   0.4330127   0.1739318), wk =   0.0031250
        k(   18) = (   0.0000000   0.4330127   0.3478637), wk =   0.0031250
        k(   19) = (   0.0000000   0.4330127   0.5217955), wk =   0.0031250
        k(   20) = (   0.0000000   0.4330127   0.6957274), wk =   0.0031250
        k(   21) = (   0.0000000   0.5773503   0.0000000), wk =   0.0031250
        k(   22) = (   0.0000000   0.5773503   0.1739318), wk =   0.0031250
        k(   23) = (   0.0000000   0.5773503   0.3478637), wk =   0.0031250
        k(   24) = (   0.0000000   0.5773503   0.5217955), wk =   0.0031250
        k(   25) = (   0.0000000   0.5773503   0.6957274), wk =   0.0031250
        k(   26) = (   0.0000000   0.7216878   0.0000000), wk =   0.0031250
        k(   27) = (   0.0000000   0.7216878   0.1739318), wk =   0.0031250
        k(   28) = (   0.0000000   0.7216878   0.3478637), wk =   0.0031250
        k(   29) = (   0.0000000   0.7216878   0.5217955), wk =   0.0031250
        k(   30) = (   0.0000000   0.7216878   0.6957274), wk =   0.0031250
        k(   31) = (   0.0000000   0.8660254   0.0000000), wk =   0.0031250
        k(   32) = (   0.0000000   0.8660254   0.1739318), wk =   0.0031250
        k(   33) = (   0.0000000   0.8660254   0.3478637), wk =   0.0031250
        k(   34) = (   0.0000000   0.8660254   0.5217955), wk =   0.0031250
        k(   35) = (   0.0000000   0.8660254   0.6957274), wk =   0.0031250
        k(   36) = (   0.0000000   1.0103630   0.0000000), wk =   0.0031250
        k(   37) = (   0.0000000   1.0103630   0.1739318), wk =   0.0031250
        k(   38) = (   0.0000000   1.0103630   0.3478637), wk =   0.0031250
        k(   39) = (   0.0000000   1.0103630   0.5217955), wk =   0.0031250
        k(   40) = (   0.0000000   1.0103630   0.6957274), wk =   0.0031250
        k(   41) = (   0.1250000   0.0721688   0.0000000), wk =   0.0031250
        k(   42) = (   0.1250000   0.0721688   0.1739318), wk =   0.0031250
        k(   43) = (   0.1250000   0.0721688   0.3478637), wk =   0.0031250
        k(   44) = (   0.1250000   0.0721688   0.5217955), wk =   0.0031250
        k(   45) = (   0.1250000   0.0721688   0.6957274), wk =   0.0031250
        k(   46) = (   0.1250000   0.2165064   0.0000000), wk =   0.0031250
        k(   47) = (   0.1250000   0.2165064   0.1739318), wk =   0.0031250
        k(   48) = (   0.1250000   0.2165064   0.3478637), wk =   0.0031250
        k(   49) = (   0.1250000   0.2165064   0.5217955), wk =   0.0031250
        k(   50) = (   0.1250000   0.2165064   0.6957274), wk =   0.0031250
        k(   51) = (   0.1250000   0.3608439   0.0000000), wk =   0.0031250
        k(   52) = (   0.1250000   0.3608439   0.1739318), wk =   0.0031250
        k(   53) = (   0.1250000   0.3608439   0.3478637), wk =   0.0031250
        k(   54) = (   0.1250000   0.3608439   0.5217955), wk =   0.0031250
        k(   55) = (   0.1250000   0.3608439   0.6957274), wk =   0.0031250
        k(   56) = (   0.1250000   0.5051815   0.0000000), wk =   0.0031250
        k(   57) = (   0.1250000   0.5051815   0.1739318), wk =   0.0031250
        k(   58) = (   0.1250000   0.5051815   0.3478637), wk =   0.0031250
        k(   59) = (   0.1250000   0.5051815   0.5217955), wk =   0.0031250
        k(   60) = (   0.1250000   0.5051815   0.6957274), wk =   0.0031250
        k(   61) = (   0.1250000   0.6495191   0.0000000), wk =   0.0031250
        k(   62) = (   0.1250000   0.6495191   0.1739318), wk =   0.0031250
        k(   63) = (   0.1250000   0.6495191   0.3478637), wk =   0.0031250
        k(   64) = (   0.1250000   0.6495191   0.5217955), wk =   0.0031250
        k(   65) = (   0.1250000   0.6495191   0.6957274), wk =   0.0031250
        k(   66) = (   0.1250000   0.7938566   0.0000000), wk =   0.0031250
        k(   67) = (   0.1250000   0.7938566   0.1739318), wk =   0.0031250
        k(   68) = (   0.1250000   0.7938566   0.3478637), wk =   0.0031250
        k(   69) = (   0.1250000   0.7938566   0.5217955), wk =   0.0031250
        k(   70) = (   0.1250000   0.7938566   0.6957274), wk =   0.0031250
        k(   71) = (   0.1250000   0.9381942   0.0000000), wk =   0.0031250
        k(   72) = (   0.1250000   0.9381942   0.1739318), wk =   0.0031250
        k(   73) = (   0.1250000   0.9381942   0.3478637), wk =   0.0031250
        k(   74) = (   0.1250000   0.9381942   0.5217955), wk =   0.0031250
        k(   75) = (   0.1250000   0.9381942   0.6957274), wk =   0.0031250
        k(   76) = (   0.1250000   1.0825318   0.0000000), wk =   0.0031250
        k(   77) = (   0.1250000   1.0825318   0.1739318), wk =   0.0031250
        k(   78) = (   0.1250000   1.0825318   0.3478637), wk =   0.0031250
        k(   79) = (   0.1250000   1.0825318   0.5217955), wk =   0.0031250
        k(   80) = (   0.1250000   1.0825318   0.6957274), wk =   0.0031250
        k(   81) = (   0.2500000   0.1443376   0.0000000), wk =   0.0031250
        k(   82) = (   0.2500000   0.1443376   0.1739318), wk =   0.0031250
        k(   83) = (   0.2500000   0.1443376   0.3478637), wk =   0.0031250
        k(   84) = (   0.2500000   0.1443376   0.5217955), wk =   0.0031250
        k(   85) = (   0.2500000   0.1443376   0.6957274), wk =   0.0031250
        k(   86) = (   0.2500000   0.2886751   0.0000000), wk =   0.0031250
        k(   87) = (   0.2500000   0.2886751   0.1739318), wk =   0.0031250
        k(   88) = (   0.2500000   0.2886751   0.3478637), wk =   0.0031250
        k(   89) = (   0.2500000   0.2886751   0.5217955), wk =   0.0031250
        k(   90) = (   0.2500000   0.2886751   0.6957274), wk =   0.0031250
        k(   91) = (   0.2500000   0.4330127   0.0000000), wk =   0.0031250
        k(   92) = (   0.2500000   0.4330127   0.1739318), wk =   0.0031250
        k(   93) = (   0.2500000   0.4330127   0.3478637), wk =   0.0031250
        k(   94) = (   0.2500000   0.4330127   0.5217955), wk =   0.0031250
        k(   95) = (   0.2500000   0.4330127   0.6957274), wk =   0.0031250
        k(   96) = (   0.2500000   0.5773503   0.0000000), wk =   0.0031250
        k(   97) = (   0.2500000   0.5773503   0.1739318), wk =   0.0031250
        k(   98) = (   0.2500000   0.5773503   0.3478637), wk =   0.0031250
        k(   99) = (   0.2500000   0.5773503   0.5217955), wk =   0.0031250
        k(  100) = (   0.2500000   0.5773503   0.6957274), wk =   0.0031250
        k(  101) = (   0.2500000   0.7216878   0.0000000), wk =   0.0031250
        k(  102) = (   0.2500000   0.7216878   0.1739318), wk =   0.0031250
        k(  103) = (   0.2500000   0.7216878   0.3478637), wk =   0.0031250
        k(  104) = (   0.2500000   0.7216878   0.5217955), wk =   0.0031250
        k(  105) = (   0.2500000   0.7216878   0.6957274), wk =   0.0031250
        k(  106) = (   0.2500000   0.8660254   0.0000000), wk =   0.0031250
        k(  107) = (   0.2500000   0.8660254   0.1739318), wk =   0.0031250
        k(  108) = (   0.2500000   0.8660254   0.3478637), wk =   0.0031250
        k(  109) = (   0.2500000   0.8660254   0.5217955), wk =   0.0031250
        k(  110) = (   0.2500000   0.8660254   0.6957274), wk =   0.0031250
        k(  111) = (   0.2500000   1.0103630   0.0000000), wk =   0.0031250
        k(  112) = (   0.2500000   1.0103630   0.1739318), wk =   0.0031250
        k(  113) = (   0.2500000   1.0103630   0.3478637), wk =   0.0031250
        k(  114) = (   0.2500000   1.0103630   0.5217955), wk =   0.0031250
        k(  115) = (   0.2500000   1.0103630   0.6957274), wk =   0.0031250
        k(  116) = (   0.2500000   1.1547005   0.0000000), wk =   0.0031250
        k(  117) = (   0.2500000   1.1547005   0.1739318), wk =   0.0031250
        k(  118) = (   0.2500000   1.1547005   0.3478637), wk =   0.0031250
        k(  119) = (   0.2500000   1.1547005   0.5217955), wk =   0.0031250
        k(  120) = (   0.2500000   1.1547005   0.6957274), wk =   0.0031250
        k(  121) = (   0.3750000   0.2165064   0.0000000), wk =   0.0031250
        k(  122) = (   0.3750000   0.2165064   0.1739318), wk =   0.0031250
        k(  123) = (   0.3750000   0.2165064   0.3478637), wk =   0.0031250
        k(  124) = (   0.3750000   0.2165064   0.5217955), wk =   0.0031250
        k(  125) = (   0.3750000   0.2165064   0.6957274), wk =   0.0031250
        k(  126) = (   0.3750000   0.3608439   0.0000000), wk =   0.0031250
        k(  127) = (   0.3750000   0.3608439   0.1739318), wk =   0.0031250
        k(  128) = (   0.3750000   0.3608439   0.3478637), wk =   0.0031250
        k(  129) = (   0.3750000   0.3608439   0.5217955), wk =   0.0031250
        k(  130) = (   0.3750000   0.3608439   0.6957274), wk =   0.0031250
        k(  131) = (   0.3750000   0.5051815   0.0000000), wk =   0.0031250
        k(  132) = (   0.3750000   0.5051815   0.1739318), wk =   0.0031250
        k(  133) = (   0.3750000   0.5051815   0.3478637), wk =   0.0031250
        k(  134) = (   0.3750000   0.5051815   0.5217955), wk =   0.0031250
        k(  135) = (   0.3750000   0.5051815   0.6957274), wk =   0.0031250
        k(  136) = (   0.3750000   0.6495191   0.0000000), wk =   0.0031250
        k(  137) = (   0.3750000   0.6495191   0.1739318), wk =   0.0031250
        k(  138) = (   0.3750000   0.6495191   0.3478637), wk =   0.0031250
        k(  139) = (   0.3750000   0.6495191   0.5217955), wk =   0.0031250
        k(  140) = (   0.3750000   0.6495191   0.6957274), wk =   0.0031250
        k(  141) = (   0.3750000   0.7938566   0.0000000), wk =   0.0031250
        k(  142) = (   0.3750000   0.7938566   0.1739318), wk =   0.0031250
        k(  143) = (   0.3750000   0.7938566   0.3478637), wk =   0.0031250
        k(  144) = (   0.3750000   0.7938566   0.5217955), wk =   0.0031250
        k(  145) = (   0.3750000   0.7938566   0.6957274), wk =   0.0031250
        k(  146) = (   0.3750000   0.9381942   0.0000000), wk =   0.0031250
        k(  147) = (   0.3750000   0.9381942   0.1739318), wk =   0.0031250
        k(  148) = (   0.3750000   0.9381942   0.3478637), wk =   0.0031250
        k(  149) = (   0.3750000   0.9381942   0.5217955), wk =   0.0031250
        k(  150) = (   0.3750000   0.9381942   0.6957274), wk =   0.0031250
        k(  151) = (   0.3750000   1.0825318   0.0000000), wk =   0.0031250
        k(  152) = (   0.3750000   1.0825318   0.1739318), wk =   0.0031250
        k(  153) = (   0.3750000   1.0825318   0.3478637), wk =   0.0031250
        k(  154) = (   0.3750000   1.0825318   0.5217955), wk =   0.0031250
        k(  155) = (   0.3750000   1.0825318   0.6957274), wk =   0.0031250
        k(  156) = (   0.3750000   1.2268693   0.0000000), wk =   0.0031250
        k(  157) = (   0.3750000   1.2268693   0.1739318), wk =   0.0031250
        k(  158) = (   0.3750000   1.2268693   0.3478637), wk =   0.0031250
        k(  159) = (   0.3750000   1.2268693   0.5217955), wk =   0.0031250
        k(  160) = (   0.3750000   1.2268693   0.6957274), wk =   0.0031250
        k(  161) = (   0.5000000   0.2886751   0.0000000), wk =   0.0031250
        k(  162) = (   0.5000000   0.2886751   0.1739318), wk =   0.0031250
        k(  163) = (   0.5000000   0.2886751   0.3478637), wk =   0.0031250
        k(  164) = (   0.5000000   0.2886751   0.5217955), wk =   0.0031250
        k(  165) = (   0.5000000   0.2886751   0.6957274), wk =   0.0031250
        k(  166) = (   0.5000000   0.4330127   0.0000000), wk =   0.0031250
        k(  167) = (   0.5000000   0.4330127   0.1739318), wk =   0.0031250
        k(  168) = (   0.5000000   0.4330127   0.3478637), wk =   0.0031250
        k(  169) = (   0.5000000   0.4330127   0.5217955), wk =   0.0031250
        k(  170) = (   0.5000000   0.4330127   0.6957274), wk =   0.0031250
        k(  171) = (   0.5000000   0.5773503   0.0000000), wk =   0.0031250
        k(  172) = (   0.5000000   0.5773503   0.1739318), wk =   0.0031250
        k(  173) = (   0.5000000   0.5773503   0.3478637), wk =   0.0031250
        k(  174) = (   0.5000000   0.5773503   0.5217955), wk =   0.0031250
        k(  175) = (   0.5000000   0.5773503   0.6957274), wk =   0.0031250
        k(  176) = (   0.5000000   0.7216878   0.0000000), wk =   0.0031250
        k(  177) = (   0.5000000   0.7216878   0.1739318), wk =   0.0031250
        k(  178) = (   0.5000000   0.7216878   0.3478637), wk =   0.0031250
        k(  179) = (   0.5000000   0.7216878   0.5217955), wk =   0.0031250
        k(  180) = (   0.5000000   0.7216878   0.6957274), wk =   0.0031250
        k(  181) = (   0.5000000   0.8660254   0.0000000), wk =   0.0031250
        k(  182) = (   0.5000000   0.8660254   0.1739318), wk =   0.0031250
        k(  183) = (   0.5000000   0.8660254   0.3478637), wk =   0.0031250
        k(  184) = (   0.5000000   0.8660254   0.5217955), wk =   0.0031250
        k(  185) = (   0.5000000   0.8660254   0.6957274), wk =   0.0031250
        k(  186) = (   0.5000000   1.0103630   0.0000000), wk =   0.0031250
        k(  187) = (   0.5000000   1.0103630   0.1739318), wk =   0.0031250
        k(  188) = (   0.5000000   1.0103630   0.3478637), wk =   0.0031250
        k(  189) = (   0.5000000   1.0103630   0.5217955), wk =   0.0031250
        k(  190) = (   0.5000000   1.0103630   0.6957274), wk =   0.0031250
        k(  191) = (   0.5000000   1.1547005   0.0000000), wk =   0.0031250
        k(  192) = (   0.5000000   1.1547005   0.1739318), wk =   0.0031250
        k(  193) = (   0.5000000   1.1547005   0.3478637), wk =   0.0031250
        k(  194) = (   0.5000000   1.1547005   0.5217955), wk =   0.0031250
        k(  195) = (   0.5000000   1.1547005   0.6957274), wk =   0.0031250
        k(  196) = (   0.5000000   1.2990381   0.0000000), wk =   0.0031250
        k(  197) = (   0.5000000   1.2990381   0.1739318), wk =   0.0031250
        k(  198) = (   0.5000000   1.2990381   0.3478637), wk =   0.0031250
        k(  199) = (   0.5000000   1.2990381   0.5217955), wk =   0.0031250
        k(  200) = (   0.5000000   1.2990381   0.6957274), wk =   0.0031250
        k(  201) = (   0.6250000   0.3608439   0.0000000), wk =   0.0031250
        k(  202) = (   0.6250000   0.3608439   0.1739318), wk =   0.0031250
        k(  203) = (   0.6250000   0.3608439   0.3478637), wk =   0.0031250
        k(  204) = (   0.6250000   0.3608439   0.5217955), wk =   0.0031250
        k(  205) = (   0.6250000   0.3608439   0.6957274), wk =   0.0031250
        k(  206) = (   0.6250000   0.5051815   0.0000000), wk =   0.0031250
        k(  207) = (   0.6250000   0.5051815   0.1739318), wk =   0.0031250
        k(  208) = (   0.6250000   0.5051815   0.3478637), wk =   0.0031250
        k(  209) = (   0.6250000   0.5051815   0.5217955), wk =   0.0031250
        k(  210) = (   0.6250000   0.5051815   0.6957274), wk =   0.0031250
        k(  211) = (   0.6250000   0.6495191   0.0000000), wk =   0.0031250
        k(  212) = (   0.6250000   0.6495191   0.1739318), wk =   0.0031250
        k(  213) = (   0.6250000   0.6495191   0.3478637), wk =   0.0031250
        k(  214) = (   0.6250000   0.6495191   0.5217955), wk =   0.0031250
        k(  215) = (   0.6250000   0.6495191   0.6957274), wk =   0.0031250
        k(  216) = (   0.6250000   0.7938566   0.0000000), wk =   0.0031250
        k(  217) = (   0.6250000   0.7938566   0.1739318), wk =   0.0031250
        k(  218) = (   0.6250000   0.7938566   0.3478637), wk =   0.0031250
        k(  219) = (   0.6250000   0.7938566   0.5217955), wk =   0.0031250
        k(  220) = (   0.6250000   0.7938566   0.6957274), wk =   0.0031250
        k(  221) = (   0.6250000   0.9381942   0.0000000), wk =   0.0031250
        k(  222) = (   0.6250000   0.9381942   0.1739318), wk =   0.0031250
        k(  223) = (   0.6250000   0.9381942   0.3478637), wk =   0.0031250
        k(  224) = (   0.6250000   0.9381942   0.5217955), wk =   0.0031250
        k(  225) = (   0.6250000   0.9381942   0.6957274), wk =   0.0031250
        k(  226) = (   0.6250000   1.0825318   0.0000000), wk =   0.0031250
        k(  227) = (   0.6250000   1.0825318   0.1739318), wk =   0.0031250
        k(  228) = (   0.6250000   1.0825318   0.3478637), wk =   0.0031250
        k(  229) = (   0.6250000   1.0825318   0.5217955), wk =   0.0031250
        k(  230) = (   0.6250000   1.0825318   0.6957274), wk =   0.0031250
        k(  231) = (   0.6250000   1.2268693   0.0000000), wk =   0.0031250
        k(  232) = (   0.6250000   1.2268693   0.1739318), wk =   0.0031250
        k(  233) = (   0.6250000   1.2268693   0.3478637), wk =   0.0031250
        k(  234) = (   0.6250000   1.2268693   0.5217955), wk =   0.0031250
        k(  235) = (   0.6250000   1.2268693   0.6957274), wk =   0.0031250
        k(  236) = (   0.6250000   1.3712069   0.0000000), wk =   0.0031250
        k(  237) = (   0.6250000   1.3712069   0.1739318), wk =   0.0031250
        k(  238) = (   0.6250000   1.3712069   0.3478637), wk =   0.0031250
        k(  239) = (   0.6250000   1.3712069   0.5217955), wk =   0.0031250
        k(  240) = (   0.6250000   1.3712069   0.6957274), wk =   0.0031250
        k(  241) = (   0.7500000   0.4330127   0.0000000), wk =   0.0031250
        k(  242) = (   0.7500000   0.4330127   0.1739318), wk =   0.0031250
        k(  243) = (   0.7500000   0.4330127   0.3478637), wk =   0.0031250
        k(  244) = (   0.7500000   0.4330127   0.5217955), wk =   0.0031250
        k(  245) = (   0.7500000   0.4330127   0.6957274), wk =   0.0031250
        k(  246) = (   0.7500000   0.5773503   0.0000000), wk =   0.0031250
        k(  247) = (   0.7500000   0.5773503   0.1739318), wk =   0.0031250
        k(  248) = (   0.7500000   0.5773503   0.3478637), wk =   0.0031250
        k(  249) = (   0.7500000   0.5773503   0.5217955), wk =   0.0031250
        k(  250) = (   0.7500000   0.5773503   0.6957274), wk =   0.0031250
        k(  251) = (   0.7500000   0.7216878   0.0000000), wk =   0.0031250
        k(  252) = (   0.7500000   0.7216878   0.1739318), wk =   0.0031250
        k(  253) = (   0.7500000   0.7216878   0.3478637), wk =   0.0031250
        k(  254) = (   0.7500000   0.7216878   0.5217955), wk =   0.0031250
        k(  255) = (   0.7500000   0.7216878   0.6957274), wk =   0.0031250
        k(  256) = (   0.7500000   0.8660254   0.0000000), wk =   0.0031250
        k(  257) = (   0.7500000   0.8660254   0.1739318), wk =   0.0031250
        k(  258) = (   0.7500000   0.8660254   0.3478637), wk =   0.0031250
        k(  259) = (   0.7500000   0.8660254   0.5217955), wk =   0.0031250
        k(  260) = (   0.7500000   0.8660254   0.6957274), wk =   0.0031250
        k(  261) = (   0.7500000   1.0103630   0.0000000), wk =   0.0031250
        k(  262) = (   0.7500000   1.0103630   0.1739318), wk =   0.0031250
        k(  263) = (   0.7500000   1.0103630   0.3478637), wk =   0.0031250
        k(  264) = (   0.7500000   1.0103630   0.5217955), wk =   0.0031250
        k(  265) = (   0.7500000   1.0103630   0.6957274), wk =   0.0031250
        k(  266) = (   0.7500000   1.1547005   0.0000000), wk =   0.0031250
        k(  267) = (   0.7500000   1.1547005   0.1739318), wk =   0.0031250
        k(  268) = (   0.7500000   1.1547005   0.3478637), wk =   0.0031250
        k(  269) = (   0.7500000   1.1547005   0.5217955), wk =   0.0031250
        k(  270) = (   0.7500000   1.1547005   0.6957274), wk =   0.0031250
        k(  271) = (   0.7500000   1.2990381   0.0000000), wk =   0.0031250
        k(  272) = (   0.7500000   1.2990381   0.1739318), wk =   0.0031250
        k(  273) = (   0.7500000   1.2990381   0.3478637), wk =   0.0031250
        k(  274) = (   0.7500000   1.2990381   0.5217955), wk =   0.0031250
        k(  275) = (   0.7500000   1.2990381   0.6957274), wk =   0.0031250
        k(  276) = (   0.7500000   1.4433757   0.0000000), wk =   0.0031250
        k(  277) = (   0.7500000   1.4433757   0.1739318), wk =   0.0031250
        k(  278) = (   0.7500000   1.4433757   0.3478637), wk =   0.0031250
        k(  279) = (   0.7500000   1.4433757   0.5217955), wk =   0.0031250
        k(  280) = (   0.7500000   1.4433757   0.6957274), wk =   0.0031250
        k(  281) = (   0.8750000   0.5051815   0.0000000), wk =   0.0031250
        k(  282) = (   0.8750000   0.5051815   0.1739318), wk =   0.0031250
        k(  283) = (   0.8750000   0.5051815   0.3478637), wk =   0.0031250
        k(  284) = (   0.8750000   0.5051815   0.5217955), wk =   0.0031250
        k(  285) = (   0.8750000   0.5051815   0.6957274), wk =   0.0031250
        k(  286) = (   0.8750000   0.6495191   0.0000000), wk =   0.0031250
        k(  287) = (   0.8750000   0.6495191   0.1739318), wk =   0.0031250
        k(  288) = (   0.8750000   0.6495191   0.3478637), wk =   0.0031250
        k(  289) = (   0.8750000   0.6495191   0.5217955), wk =   0.0031250
        k(  290) = (   0.8750000   0.6495191   0.6957274), wk =   0.0031250
        k(  291) = (   0.8750000   0.7938566   0.0000000), wk =   0.0031250
        k(  292) = (   0.8750000   0.7938566   0.1739318), wk =   0.0031250
        k(  293) = (   0.8750000   0.7938566   0.3478637), wk =   0.0031250
        k(  294) = (   0.8750000   0.7938566   0.5217955), wk =   0.0031250
        k(  295) = (   0.8750000   0.7938566   0.6957274), wk =   0.0031250
        k(  296) = (   0.8750000   0.9381942   0.0000000), wk =   0.0031250
        k(  297) = (   0.8750000   0.9381942   0.1739318), wk =   0.0031250
        k(  298) = (   0.8750000   0.9381942   0.3478637), wk =   0.0031250
        k(  299) = (   0.8750000   0.9381942   0.5217955), wk =   0.0031250
        k(  300) = (   0.8750000   0.9381942   0.6957274), wk =   0.0031250
        k(  301) = (   0.8750000   1.0825318   0.0000000), wk =   0.0031250
        k(  302) = (   0.8750000   1.0825318   0.1739318), wk =   0.0031250
        k(  303) = (   0.8750000   1.0825318   0.3478637), wk =   0.0031250
        k(  304) = (   0.8750000   1.0825318   0.5217955), wk =   0.0031250
        k(  305) = (   0.8750000   1.0825318   0.6957274), wk =   0.0031250
        k(  306) = (   0.8750000   1.2268693   0.0000000), wk =   0.0031250
        k(  307) = (   0.8750000   1.2268693   0.1739318), wk =   0.0031250
        k(  308) = (   0.8750000   1.2268693   0.3478637), wk =   0.0031250
        k(  309) = (   0.8750000   1.2268693   0.5217955), wk =   0.0031250
        k(  310) = (   0.8750000   1.2268693   0.6957274), wk =   0.0031250
        k(  311) = (   0.8750000   1.3712069   0.0000000), wk =   0.0031250
        k(  312) = (   0.8750000   1.3712069   0.1739318), wk =   0.0031250
        k(  313) = (   0.8750000   1.3712069   0.3478637), wk =   0.0031250
        k(  314) = (   0.8750000   1.3712069   0.5217955), wk =   0.0031250
        k(  315) = (   0.8750000   1.3712069   0.6957274), wk =   0.0031250
        k(  316) = (   0.8750000   1.5155445   0.0000000), wk =   0.0031250
        k(  317) = (   0.8750000   1.5155445   0.1739318), wk =   0.0031250
        k(  318) = (   0.8750000   1.5155445   0.3478637), wk =   0.0031250
        k(  319) = (   0.8750000   1.5155445   0.5217955), wk =   0.0031250
        k(  320) = (   0.8750000   1.5155445   0.6957274), wk =   0.0031250

                       cryst. coord.
        k(    1) = (   0.0000000   0.0000000   0.0000000), wk =   0.0031250
        k(    2) = (   0.0000000   0.0000000   0.2000000), wk =   0.0031250
        k(    3) = (   0.0000000   0.0000000   0.4000000), wk =   0.0031250
        k(    4) = (   0.0000000   0.0000000   0.6000000), wk =   0.0031250
        k(    5) = (   0.0000000   0.0000000   0.8000000), wk =   0.0031250
        k(    6) = (   0.0000000   0.1250000   0.0000000), wk =   0.0031250
        k(    7) = (   0.0000000   0.1250000   0.2000000), wk =   0.0031250
        k(    8) = (   0.0000000   0.1250000   0.4000000), wk =   0.0031250
        k(    9) = (   0.0000000   0.1250000   0.6000000), wk =   0.0031250
        k(   10) = (   0.0000000   0.1250000   0.8000000), wk =   0.0031250
        k(   11) = (   0.0000000   0.2500000   0.0000000), wk =   0.0031250
        k(   12) = (   0.0000000   0.2500000   0.2000000), wk =   0.0031250
        k(   13) = (   0.0000000   0.2500000   0.4000000), wk =   0.0031250
        k(   14) = (   0.0000000   0.2500000   0.6000000), wk =   0.0031250
        k(   15) = (   0.0000000   0.2500000   0.8000000), wk =   0.0031250
        k(   16) = (   0.0000000   0.3750000   0.0000000), wk =   0.0031250
        k(   17) = (   0.0000000   0.3750000   0.2000000), wk =   0.0031250
        k(   18) = (   0.0000000   0.3750000   0.4000000), wk =   0.0031250
        k(   19) = (   0.0000000   0.3750000   0.6000000), wk =   0.0031250
        k(   20) = (   0.0000000   0.3750000   0.8000000), wk =   0.0031250
        k(   21) = (   0.0000000   0.5000000   0.0000000), wk =   0.0031250
        k(   22) = (   0.0000000   0.5000000   0.2000000), wk =   0.0031250
        k(   23) = (   0.0000000   0.5000000   0.4000000), wk =   0.0031250
        k(   24) = (   0.0000000   0.5000000   0.6000000), wk =   0.0031250
        k(   25) = (   0.0000000   0.5000000   0.8000000), wk =   0.0031250
        k(   26) = (   0.0000000   0.6250000   0.0000000), wk =   0.0031250
        k(   27) = (   0.0000000   0.6250000   0.2000000), wk =   0.0031250
        k(   28) = (   0.0000000   0.6250000   0.4000000), wk =   0.0031250
        k(   29) = (   0.0000000   0.6250000   0.6000000), wk =   0.0031250
        k(   30) = (   0.0000000   0.6250000   0.8000000), wk =   0.0031250
        k(   31) = (   0.0000000   0.7500000   0.0000000), wk =   0.0031250
        k(   32) = (   0.0000000   0.7500000   0.2000000), wk =   0.0031250
        k(   33) = (   0.0000000   0.7500000   0.4000000), wk =   0.0031250
        k(   34) = (   0.0000000   0.7500000   0.6000000), wk =   0.0031250
        k(   35) = (   0.0000000   0.7500000   0.8000000), wk =   0.0031250
        k(   36) = (   0.0000000   0.8750000   0.0000000), wk =   0.0031250
        k(   37) = (   0.0000000   0.8750000   0.2000000), wk =   0.0031250
        k(   38) = (   0.0000000   0.8750000   0.4000000), wk =   0.0031250
        k(   39) = (   0.0000000   0.8750000   0.6000000), wk =   0.0031250
        k(   40) = (   0.0000000   0.8750000   0.8000000), wk =   0.0031250
        k(   41) = (   0.1250000  -0.0000000   0.0000000), wk =   0.0031250
        k(   42) = (   0.1250000  -0.0000000   0.2000000), wk =   0.0031250
        k(   43) = (   0.1250000  -0.0000000   0.4000000), wk =   0.0031250
        k(   44) = (   0.1250000  -0.0000000   0.6000000), wk =   0.0031250
        k(   45) = (   0.1250000  -0.0000000   0.8000000), wk =   0.0031250
        k(   46) = (   0.1250000   0.1250000   0.0000000), wk =   0.0031250
        k(   47) = (   0.1250000   0.1250000   0.2000000), wk =   0.0031250
        k(   48) = (   0.1250000   0.1250000   0.4000000), wk =   0.0031250
        k(   49) = (   0.1250000   0.1250000   0.6000000), wk =   0.0031250
        k(   50) = (   0.1250000   0.1250000   0.8000000), wk =   0.0031250
        k(   51) = (   0.1250000   0.2500000   0.0000000), wk =   0.0031250
        k(   52) = (   0.1250000   0.2500000   0.2000000), wk =   0.0031250
        k(   53) = (   0.1250000   0.2500000   0.4000000), wk =   0.0031250
        k(   54) = (   0.1250000   0.2500000   0.6000000), wk =   0.0031250
        k(   55) = (   0.1250000   0.2500000   0.8000000), wk =   0.0031250
        k(   56) = (   0.1250000   0.3750000   0.0000000), wk =   0.0031250
        k(   57) = (   0.1250000   0.3750000   0.2000000), wk =   0.0031250
        k(   58) = (   0.1250000   0.3750000   0.4000000), wk =   0.0031250
        k(   59) = (   0.1250000   0.3750000   0.6000000), wk =   0.0031250
        k(   60) = (   0.1250000   0.3750000   0.8000000), wk =   0.0031250
        k(   61) = (   0.1250000   0.5000000   0.0000000), wk =   0.0031250
        k(   62) = (   0.1250000   0.5000000   0.2000000), wk =   0.0031250
        k(   63) = (   0.1250000   0.5000000   0.4000000), wk =   0.0031250
        k(   64) = (   0.1250000   0.5000000   0.6000000), wk =   0.0031250
        k(   65) = (   0.1250000   0.5000000   0.8000000), wk =   0.0031250
        k(   66) = (   0.1250000   0.6250000   0.0000000), wk =   0.0031250
        k(   67) = (   0.1250000   0.6250000   0.2000000), wk =   0.0031250
        k(   68) = (   0.1250000   0.6250000   0.4000000), wk =   0.0031250
        k(   69) = (   0.1250000   0.6250000   0.6000000), wk =   0.0031250
        k(   70) = (   0.1250000   0.6250000   0.8000000), wk =   0.0031250
        k(   71) = (   0.1250000   0.7500000   0.0000000), wk =   0.0031250
        k(   72) = (   0.1250000   0.7500000   0.2000000), wk =   0.0031250
        k(   73) = (   0.1250000   0.7500000   0.4000000), wk =   0.0031250
        k(   74) = (   0.1250000   0.7500000   0.6000000), wk =   0.0031250
        k(   75) = (   0.1250000   0.7500000   0.8000000), wk =   0.0031250
        k(   76) = (   0.1250000   0.8750000   0.0000000), wk =   0.0031250
        k(   77) = (   0.1250000   0.8750000   0.2000000), wk =   0.0031250
        k(   78) = (   0.1250000   0.8750000   0.4000000), wk =   0.0031250
        k(   79) = (   0.1250000   0.8750000   0.6000000), wk =   0.0031250
        k(   80) = (   0.1250000   0.8750000   0.8000000), wk =   0.0031250
        k(   81) = (   0.2500000  -0.0000000   0.0000000), wk =   0.0031250
        k(   82) = (   0.2500000  -0.0000000   0.2000000), wk =   0.0031250
        k(   83) = (   0.2500000  -0.0000000   0.4000000), wk =   0.0031250
        k(   84) = (   0.2500000  -0.0000000   0.6000000), wk =   0.0031250
        k(   85) = (   0.2500000  -0.0000000   0.8000000), wk =   0.0031250
        k(   86) = (   0.2500000   0.1250000   0.0000000), wk =   0.0031250
        k(   87) = (   0.2500000   0.1250000   0.2000000), wk =   0.0031250
        k(   88) = (   0.2500000   0.1250000   0.4000000), wk =   0.0031250
        k(   89) = (   0.2500000   0.1250000   0.6000000), wk =   0.0031250
        k(   90) = (   0.2500000   0.1250000   0.8000000), wk =   0.0031250
        k(   91) = (   0.2500000   0.2500000   0.0000000), wk =   0.0031250
        k(   92) = (   0.2500000   0.2500000   0.2000000), wk =   0.0031250
        k(   93) = (   0.2500000   0.2500000   0.4000000), wk =   0.0031250
        k(   94) = (   0.2500000   0.2500000   0.6000000), wk =   0.0031250
        k(   95) = (   0.2500000   0.2500000   0.8000000), wk =   0.0031250
        k(   96) = (   0.2500000   0.3750000   0.0000000), wk =   0.0031250
        k(   97) = (   0.2500000   0.3750000   0.2000000), wk =   0.0031250
        k(   98) = (   0.2500000   0.3750000   0.4000000), wk =   0.0031250
        k(   99) = (   0.2500000   0.3750000   0.6000000), wk =   0.0031250
        k(  100) = (   0.2500000   0.3750000   0.8000000), wk =   0.0031250
        k(  101) = (   0.2500000   0.5000000   0.0000000), wk =   0.0031250
        k(  102) = (   0.2500000   0.5000000   0.2000000), wk =   0.0031250
        k(  103) = (   0.2500000   0.5000000   0.4000000), wk =   0.0031250
        k(  104) = (   0.2500000   0.5000000   0.6000000), wk =   0.0031250
        k(  105) = (   0.2500000   0.5000000   0.8000000), wk =   0.0031250
        k(  106) = (   0.2500000   0.6250000   0.0000000), wk =   0.0031250
        k(  107) = (   0.2500000   0.6250000   0.2000000), wk =   0.0031250
        k(  108) = (   0.2500000   0.6250000   0.4000000), wk =   0.0031250
        k(  109) = (   0.2500000   0.6250000   0.6000000), wk =   0.0031250
        k(  110) = (   0.2500000   0.6250000   0.8000000), wk =   0.0031250
        k(  111) = (   0.2500000   0.7500000   0.0000000), wk =   0.0031250
        k(  112) = (   0.2500000   0.7500000   0.2000000), wk =   0.0031250
        k(  113) = (   0.2500000   0.7500000   0.4000000), wk =   0.0031250
        k(  114) = (   0.2500000   0.7500000   0.6000000), wk =   0.0031250
        k(  115) = (   0.2500000   0.7500000   0.8000000), wk =   0.0031250
        k(  116) = (   0.2500000   0.8750000   0.0000000), wk =   0.0031250
        k(  117) = (   0.2500000   0.8750000   0.2000000), wk =   0.0031250
        k(  118) = (   0.2500000   0.8750000   0.4000000), wk =   0.0031250
        k(  119) = (   0.2500000   0.8750000   0.6000000), wk =   0.0031250
        k(  120) = (   0.2500000   0.8750000   0.8000000), wk =   0.0031250
        k(  121) = (   0.3750000  -0.0000000   0.0000000), wk =   0.0031250
        k(  122) = (   0.3750000  -0.0000000   0.2000000), wk =   0.0031250
        k(  123) = (   0.3750000  -0.0000000   0.4000000), wk =   0.0031250
        k(  124) = (   0.3750000  -0.0000000   0.6000000), wk =   0.0031250
        k(  125) = (   0.3750000  -0.0000000   0.8000000), wk =   0.0031250
        k(  126) = (   0.3750000   0.1250000   0.0000000), wk =   0.0031250
        k(  127) = (   0.3750000   0.1250000   0.2000000), wk =   0.0031250
        k(  128) = (   0.3750000   0.1250000   0.4000000), wk =   0.0031250
        k(  129) = (   0.3750000   0.1250000   0.6000000), wk =   0.0031250
        k(  130) = (   0.3750000   0.1250000   0.8000000), wk =   0.0031250
        k(  131) = (   0.3750000   0.2500000   0.0000000), wk =   0.0031250
        k(  132) = (   0.3750000   0.2500000   0.2000000), wk =   0.0031250
        k(  133) = (   0.3750000   0.2500000   0.4000000), wk =   0.0031250
        k(  134) = (   0.3750000   0.2500000   0.6000000), wk =   0.0031250
        k(  135) = (   0.3750000   0.2500000   0.8000000), wk =   0.0031250
        k(  136) = (   0.3750000   0.3750000   0.0000000), wk =   0.0031250
        k(  137) = (   0.3750000   0.3750000   0.2000000), wk =   0.0031250
        k(  138) = (   0.3750000   0.3750000   0.4000000), wk =   0.0031250
        k(  139) = (   0.3750000   0.3750000   0.6000000), wk =   0.0031250
        k(  140) = (   0.3750000   0.3750000   0.8000000), wk =   0.0031250
        k(  141) = (   0.3750000   0.5000000   0.0000000), wk =   0.0031250
        k(  142) = (   0.3750000   0.5000000   0.2000000), wk =   0.0031250
        k(  143) = (   0.3750000   0.5000000   0.4000000), wk =   0.0031250
        k(  144) = (   0.3750000   0.5000000   0.6000000), wk =   0.0031250
        k(  145) = (   0.3750000   0.5000000   0.8000000), wk =   0.0031250
        k(  146) = (   0.3750000   0.6250000   0.0000000), wk =   0.0031250
        k(  147) = (   0.3750000   0.6250000   0.2000000), wk =   0.0031250
        k(  148) = (   0.3750000   0.6250000   0.4000000), wk =   0.0031250
        k(  149) = (   0.3750000   0.6250000   0.6000000), wk =   0.0031250
        k(  150) = (   0.3750000   0.6250000   0.8000000), wk =   0.0031250
        k(  151) = (   0.3750000   0.7500000   0.0000000), wk =   0.0031250
        k(  152) = (   0.3750000   0.7500000   0.2000000), wk =   0.0031250
        k(  153) = (   0.3750000   0.7500000   0.4000000), wk =   0.0031250
        k(  154) = (   0.3750000   0.7500000   0.6000000), wk =   0.0031250
        k(  155) = (   0.3750000   0.7500000   0.8000000), wk =   0.0031250
        k(  156) = (   0.3750000   0.8750000   0.0000000), wk =   0.0031250
        k(  157) = (   0.3750000   0.8750000   0.2000000), wk =   0.0031250
        k(  158) = (   0.3750000   0.8750000   0.4000000), wk =   0.0031250
        k(  159) = (   0.3750000   0.8750000   0.6000000), wk =   0.0031250
        k(  160) = (   0.3750000   0.8750000   0.8000000), wk =   0.0031250
        k(  161) = (   0.5000000  -0.0000000   0.0000000), wk =   0.0031250
        k(  162) = (   0.5000000  -0.0000000   0.2000000), wk =   0.0031250
        k(  163) = (   0.5000000  -0.0000000   0.4000000), wk =   0.0031250
        k(  164) = (   0.5000000  -0.0000000   0.6000000), wk =   0.0031250
        k(  165) = (   0.5000000  -0.0000000   0.8000000), wk =   0.0031250
        k(  166) = (   0.5000000   0.1250000   0.0000000), wk =   0.0031250
        k(  167) = (   0.5000000   0.1250000   0.2000000), wk =   0.0031250
        k(  168) = (   0.5000000   0.1250000   0.4000000), wk =   0.0031250
        k(  169) = (   0.5000000   0.1250000   0.6000000), wk =   0.0031250
        k(  170) = (   0.5000000   0.1250000   0.8000000), wk =   0.0031250
        k(  171) = (   0.5000000   0.2500000   0.0000000), wk =   0.0031250
        k(  172) = (   0.5000000   0.2500000   0.2000000), wk =   0.0031250
        k(  173) = (   0.5000000   0.2500000   0.4000000), wk =   0.0031250
        k(  174) = (   0.5000000   0.2500000   0.6000000), wk =   0.0031250
        k(  175) = (   0.5000000   0.2500000   0.8000000), wk =   0.0031250
        k(  176) = (   0.5000000   0.3750000   0.0000000), wk =   0.0031250
        k(  177) = (   0.5000000   0.3750000   0.2000000), wk =   0.0031250
        k(  178) = (   0.5000000   0.3750000   0.4000000), wk =   0.0031250
        k(  179) = (   0.5000000   0.3750000   0.6000000), wk =   0.0031250
        k(  180) = (   0.5000000   0.3750000   0.8000000), wk =   0.0031250
        k(  181) = (   0.5000000   0.5000000   0.0000000), wk =   0.0031250
        k(  182) = (   0.5000000   0.5000000   0.2000000), wk =   0.0031250
        k(  183) = (   0.5000000   0.5000000   0.4000000), wk =   0.0031250
        k(  184) = (   0.5000000   0.5000000   0.6000000), wk =   0.0031250
        k(  185) = (   0.5000000   0.5000000   0.8000000), wk =   0.0031250
        k(  186) = (   0.5000000   0.6250000   0.0000000), wk =   0.0031250
        k(  187) = (   0.5000000   0.6250000   0.2000000), wk =   0.0031250
        k(  188) = (   0.5000000   0.6250000   0.4000000), wk =   0.0031250
        k(  189) = (   0.5000000   0.6250000   0.6000000), wk =   0.0031250
        k(  190) = (   0.5000000   0.6250000   0.8000000), wk =   0.0031250
        k(  191) = (   0.5000000   0.7500000   0.0000000), wk =   0.0031250
        k(  192) = (   0.5000000   0.7500000   0.2000000), wk =   0.0031250
        k(  193) = (   0.5000000   0.7500000   0.4000000), wk =   0.0031250
        k(  194) = (   0.5000000   0.7500000   0.6000000), wk =   0.0031250
        k(  195) = (   0.5000000   0.7500000   0.8000000), wk =   0.0031250
        k(  196) = (   0.5000000   0.8750000   0.0000000), wk =   0.0031250
        k(  197) = (   0.5000000   0.8750000   0.2000000), wk =   0.0031250
        k(  198) = (   0.5000000   0.8750000   0.4000000), wk =   0.0031250
        k(  199) = (   0.5000000   0.8750000   0.6000000), wk =   0.0031250
        k(  200) = (   0.5000000   0.8750000   0.8000000), wk =   0.0031250
        k(  201) = (   0.6250000  -0.0000000   0.0000000), wk =   0.0031250
        k(  202) = (   0.6250000  -0.0000000   0.2000000), wk =   0.0031250
        k(  203) = (   0.6250000  -0.0000000   0.4000000), wk =   0.0031250
        k(  204) = (   0.6250000  -0.0000000   0.6000000), wk =   0.0031250
        k(  205) = (   0.6250000  -0.0000000   0.8000000), wk =   0.0031250
        k(  206) = (   0.6250000   0.1250000   0.0000000), wk =   0.0031250
        k(  207) = (   0.6250000   0.1250000   0.2000000), wk =   0.0031250
        k(  208) = (   0.6250000   0.1250000   0.4000000), wk =   0.0031250
        k(  209) = (   0.6250000   0.1250000   0.6000000), wk =   0.0031250
        k(  210) = (   0.6250000   0.1250000   0.8000000), wk =   0.0031250
        k(  211) = (   0.6250000   0.2500000   0.0000000), wk =   0.0031250
        k(  212) = (   0.6250000   0.2500000   0.2000000), wk =   0.0031250
        k(  213) = (   0.6250000   0.2500000   0.4000000), wk =   0.0031250
        k(  214) = (   0.6250000   0.2500000   0.6000000), wk =   0.0031250
        k(  215) = (   0.6250000   0.2500000   0.8000000), wk =   0.0031250
        k(  216) = (   0.6250000   0.3750000   0.0000000), wk =   0.0031250
        k(  217) = (   0.6250000   0.3750000   0.2000000), wk =   0.0031250
        k(  218) = (   0.6250000   0.3750000   0.4000000), wk =   0.0031250
        k(  219) = (   0.6250000   0.3750000   0.6000000), wk =   0.0031250
        k(  220) = (   0.6250000   0.3750000   0.8000000), wk =   0.0031250
        k(  221) = (   0.6250000   0.5000000   0.0000000), wk =   0.0031250
        k(  222) = (   0.6250000   0.5000000   0.2000000), wk =   0.0031250
        k(  223) = (   0.6250000   0.5000000   0.4000000), wk =   0.0031250
        k(  224) = (   0.6250000   0.5000000   0.6000000), wk =   0.0031250
        k(  225) = (   0.6250000   0.5000000   0.8000000), wk =   0.0031250
        k(  226) = (   0.6250000   0.6250000   0.0000000), wk =   0.0031250
        k(  227) = (   0.6250000   0.6250000   0.2000000), wk =   0.0031250
        k(  228) = (   0.6250000   0.6250000   0.4000000), wk =   0.0031250
        k(  229) = (   0.6250000   0.6250000   0.6000000), wk =   0.0031250
        k(  230) = (   0.6250000   0.6250000   0.8000000), wk =   0.0031250
        k(  231) = (   0.6250000   0.7500000   0.0000000), wk =   0.0031250
        k(  232) = (   0.6250000   0.7500000   0.2000000), wk =   0.0031250
        k(  233) = (   0.6250000   0.7500000   0.4000000), wk =   0.0031250
        k(  234) = (   0.6250000   0.7500000   0.6000000), wk =   0.0031250
        k(  235) = (   0.6250000   0.7500000   0.8000000), wk =   0.0031250
        k(  236) = (   0.6250000   0.8750000   0.0000000), wk =   0.0031250
        k(  237) = (   0.6250000   0.8750000   0.2000000), wk =   0.0031250
        k(  238) = (   0.6250000   0.8750000   0.4000000), wk =   0.0031250
        k(  239) = (   0.6250000   0.8750000   0.6000000), wk =   0.0031250
        k(  240) = (   0.6250000   0.8750000   0.8000000), wk =   0.0031250
        k(  241) = (   0.7500000  -0.0000000   0.0000000), wk =   0.0031250
        k(  242) = (   0.7500000  -0.0000000   0.2000000), wk =   0.0031250
        k(  243) = (   0.7500000  -0.0000000   0.4000000), wk =   0.0031250
        k(  244) = (   0.7500000  -0.0000000   0.6000000), wk =   0.0031250
        k(  245) = (   0.7500000  -0.0000000   0.8000000), wk =   0.0031250
        k(  246) = (   0.7500000   0.1250000   0.0000000), wk =   0.0031250
        k(  247) = (   0.7500000   0.1250000   0.2000000), wk =   0.0031250
        k(  248) = (   0.7500000   0.1250000   0.4000000), wk =   0.0031250
        k(  249) = (   0.7500000   0.1250000   0.6000000), wk =   0.0031250
        k(  250) = (   0.7500000   0.1250000   0.8000000), wk =   0.0031250
        k(  251) = (   0.7500000   0.2500000   0.0000000), wk =   0.0031250
        k(  252) = (   0.7500000   0.2500000   0.2000000), wk =   0.0031250
        k(  253) = (   0.7500000   0.2500000   0.4000000), wk =   0.0031250
        k(  254) = (   0.7500000   0.2500000   0.6000000), wk =   0.0031250
        k(  255) = (   0.7500000   0.2500000   0.8000000), wk =   0.0031250
        k(  256) = (   0.7500000   0.3750000   0.0000000), wk =   0.0031250
        k(  257) = (   0.7500000   0.3750000   0.2000000), wk =   0.0031250
        k(  258) = (   0.7500000   0.3750000   0.4000000), wk =   0.0031250
        k(  259) = (   0.7500000   0.3750000   0.6000000), wk =   0.0031250
        k(  260) = (   0.7500000   0.3750000   0.8000000), wk =   0.0031250
        k(  261) = (   0.7500000   0.5000000   0.0000000), wk =   0.0031250
        k(  262) = (   0.7500000   0.5000000   0.2000000), wk =   0.0031250
        k(  263) = (   0.7500000   0.5000000   0.4000000), wk =   0.0031250
        k(  264) = (   0.7500000   0.5000000   0.6000000), wk =   0.0031250
        k(  265) = (   0.7500000   0.5000000   0.8000000), wk =   0.0031250
        k(  266) = (   0.7500000   0.6250000   0.0000000), wk =   0.0031250
        k(  267) = (   0.7500000   0.6250000   0.2000000), wk =   0.0031250
        k(  268) = (   0.7500000   0.6250000   0.4000000), wk =   0.0031250
        k(  269) = (   0.7500000   0.6250000   0.6000000), wk =   0.0031250
        k(  270) = (   0.7500000   0.6250000   0.8000000), wk =   0.0031250
        k(  271) = (   0.7500000   0.7500000   0.0000000), wk =   0.0031250
        k(  272) = (   0.7500000   0.7500000   0.2000000), wk =   0.0031250
        k(  273) = (   0.7500000   0.7500000   0.4000000), wk =   0.0031250
        k(  274) = (   0.7500000   0.7500000   0.6000000), wk =   0.0031250
        k(  275) = (   0.7500000   0.7500000   0.8000000), wk =   0.0031250
        k(  276) = (   0.7500000   0.8750000   0.0000000), wk =   0.0031250
        k(  277) = (   0.7500000   0.8750000   0.2000000), wk =   0.0031250
        k(  278) = (   0.7500000   0.8750000   0.4000000), wk =   0.0031250
        k(  279) = (   0.7500000   0.8750000   0.6000000), wk =   0.0031250
        k(  280) = (   0.7500000   0.8750000   0.8000000), wk =   0.0031250
        k(  281) = (   0.8750000   0.0000000   0.0000000), wk =   0.0031250
        k(  282) = (   0.8750000   0.0000000   0.2000000), wk =   0.0031250
        k(  283) = (   0.8750000   0.0000000   0.4000000), wk =   0.0031250
        k(  284) = (   0.8750000   0.0000000   0.6000000), wk =   0.0031250
        k(  285) = (   0.8750000   0.0000000   0.8000000), wk =   0.0031250
        k(  286) = (   0.8750000   0.1250000   0.0000000), wk =   0.0031250
        k(  287) = (   0.8750000   0.1250000   0.2000000), wk =   0.0031250
        k(  288) = (   0.8750000   0.1250000   0.4000000), wk =   0.0031250
        k(  289) = (   0.8750000   0.1250000   0.6000000), wk =   0.0031250
        k(  290) = (   0.8750000   0.1250000   0.8000000), wk =   0.0031250
        k(  291) = (   0.8750000   0.2500000   0.0000000), wk =   0.0031250
        k(  292) = (   0.8750000   0.2500000   0.2000000), wk =   0.0031250
        k(  293) = (   0.8750000   0.2500000   0.4000000), wk =   0.0031250
        k(  294) = (   0.8750000   0.2500000   0.6000000), wk =   0.0031250
        k(  295) = (   0.8750000   0.2500000   0.8000000), wk =   0.0031250
        k(  296) = (   0.8750000   0.3750000   0.0000000), wk =   0.0031250
        k(  297) = (   0.8750000   0.3750000   0.2000000), wk =   0.0031250
        k(  298) = (   0.8750000   0.3750000   0.4000000), wk =   0.0031250
        k(  299) = (   0.8750000   0.3750000   0.6000000), wk =   0.0031250
        k(  300) = (   0.8750000   0.3750000   0.8000000), wk =   0.0031250
        k(  301) = (   0.8750000   0.5000000   0.0000000), wk =   0.0031250
        k(  302) = (   0.8750000   0.5000000   0.2000000), wk =   0.0031250
        k(  303) = (   0.8750000   0.5000000   0.4000000), wk =   0.0031250
        k(  304) = (   0.8750000   0.5000000   0.6000000), wk =   0.0031250
        k(  305) = (   0.8750000   0.5000000   0.8000000), wk =   0.0031250
        k(  306) = (   0.8750000   0.6250000   0.0000000), wk =   0.0031250
        k(  307) = (   0.8750000   0.6250000   0.2000000), wk =   0.0031250
        k(  308) = (   0.8750000   0.6250000   0.4000000), wk =   0.0031250
        k(  309) = (   0.8750000   0.6250000   0.6000000), wk =   0.0031250
        k(  310) = (   0.8750000   0.6250000   0.8000000), wk =   0.0031250
        k(  311) = (   0.8750000   0.7500000   0.0000000), wk =   0.0031250
        k(  312) = (   0.8750000   0.7500000   0.2000000), wk =   0.0031250
        k(  313) = (   0.8750000   0.7500000   0.4000000), wk =   0.0031250
        k(  314) = (   0.8750000   0.7500000   0.6000000), wk =   0.0031250
        k(  315) = (   0.8750000   0.7500000   0.8000000), wk =   0.0031250
        k(  316) = (   0.8750000   0.8750000   0.0000000), wk =   0.0031250
        k(  317) = (   0.8750000   0.8750000   0.2000000), wk =   0.0031250
        k(  318) = (   0.8750000   0.8750000   0.4000000), wk =   0.0031250
        k(  319) = (   0.8750000   0.8750000   0.6000000), wk =   0.0031250
        k(  320) = (   0.8750000   0.8750000   0.8000000), wk =   0.0031250

     Dense  grid:    20259 G-vectors     FFT dimensions: (  36,  36,  40)

     Dynamical RAM for                 wfc:       0.13 MB

     Dynamical RAM for     wfc (w. buffer):       6.92 MB

     Dynamical RAM for           str. fact:       0.15 MB

     Dynamical RAM for           local pot:       0.00 MB

     Dynamical RAM for          nlocal pot:       0.23 MB

     Dynamical RAM for                qrad:       0.78 MB

     Dynamical RAM for          rho,v,vnew:       1.06 MB

     Dynamical RAM for           G-vectors:       0.33 MB

     Dynamical RAM for          h,s,v(r/c):       0.12 MB

     Dynamical RAM for          <psi|beta>:       0.00 MB

     Dynamical RAM for                 psi:       0.50 MB

     Dynamical RAM for                hpsi:       0.50 MB

     Dynamical RAM for      wfcinit/wfcrot:       0.26 MB

     Estimated static dynamical RAM per process >      10.29 MB

     Estimated max dynamical RAM per process >      11.43 MB

     Estimated total dynamical RAM >     548.45 MB
     Generating pointlists ...
     new r_m :   0.2382 (alat units)  1.3833 (a.u.) for type    1
     new r_m :   0.3361 (alat units)  1.9522 (a.u.) for type    2

     The potential is recalculated from file :
     ./out/MgB2.save/charge-density

     Starting wfcs are   13 randomized atomic wfcs

     Band Structure Calculation
     Davidson diagonalization with overlap

     Computing kpt #:     1
     total cpu time spent up to now is        0.4 secs

     Computing kpt #:     2
     total cpu time spent up to now is        0.4 secs

     Computing kpt #:     3
     total cpu time spent up to now is        0.5 secs

     Computing kpt #:     4
     total cpu time spent up to now is        0.5 secs

     Computing kpt #:     5
     total cpu time spent up to now is        0.5 secs

     Computing kpt #:     6
     total cpu time spent up to now is        0.6 secs

     Computing kpt #:     7
     total cpu time spent up to now is        0.6 secs

     Computing kpt #:     8
     total cpu time spent up to now is        0.6 secs

     Computing kpt #:     9
     total cpu time spent up to now is        0.7 secs

     Computing kpt #:    10
     total cpu time spent up to now is        0.7 secs

     Computing kpt #:    11
     total cpu time spent up to now is        0.7 secs

     Computing kpt #:    12
     total cpu time spent up to now is        0.8 secs

     Computing kpt #:    13
     total cpu time spent up to now is        0.8 secs

     Computing kpt #:    14
     total cpu time spent up to now is        0.9 secs

     Computing kpt #:    15
     total cpu time spent up to now is        0.9 secs

     Computing kpt #:    16
     total cpu time spent up to now is        0.9 secs

     Computing kpt #:    17
     total cpu time spent up to now is        1.0 secs

     Computing kpt #:    18
     total cpu time spent up to now is        1.0 secs

     Computing kpt #:    19
     total cpu time spent up to now is        1.0 secs

     Computing kpt #:    20
     total cpu time spent up to now is        1.1 secs

     Computing kpt #:    21
     total cpu time spent up to now is        1.1 secs

     Computing kpt #:    22
     total cpu time spent up to now is        1.1 secs

     Computing kpt #:    23
     total cpu time spent up to now is        1.2 secs

     Computing kpt #:    24
     total cpu time spent up to now is        1.2 secs

     Computing kpt #:    25
     total cpu time spent up to now is        1.2 secs

     Computing kpt #:    26
     total cpu time spent up to now is        1.3 secs

     Computing kpt #:    27
     total cpu time spent up to now is        1.3 secs

     Computing kpt #:    28
     total cpu time spent up to now is        1.3 secs

     Computing kpt #:    29
     total cpu time spent up to now is        1.4 secs

     Computing kpt #:    30
     total cpu time spent up to now is        1.4 secs

     Computing kpt #:    31
     total cpu time spent up to now is        1.4 secs

     Computing kpt #:    32
     total cpu time spent up to now is        1.5 secs

     Computing kpt #:    33
     total cpu time spent up to now is        1.5 secs

     Computing kpt #:    34
     total cpu time spent up to now is        1.5 secs

     Computing kpt #:    35
     total cpu time spent up to now is        1.6 secs

     Computing kpt #:    36
     total cpu time spent up to now is        1.6 secs

     Computing kpt #:    37
     total cpu time spent up to now is        1.6 secs

     Computing kpt #:    38
     total cpu time spent up to now is        1.7 secs

     Computing kpt #:    39
     total cpu time spent up to now is        1.7 secs

     Computing kpt #:    40
     total cpu time spent up to now is        1.8 secs

     Computing kpt #:    41
     total cpu time spent up to now is        1.8 secs

     Computing kpt #:    42
     total cpu time spent up to now is        1.9 secs

     Computing kpt #:    43
     total cpu time spent up to now is        1.9 secs

     Computing kpt #:    44
     total cpu time spent up to now is        1.9 secs

     Computing kpt #:    45
     total cpu time spent up to now is        2.0 secs

     Computing kpt #:    46
     total cpu time spent up to now is        2.0 secs

     Computing kpt #:    47
     total cpu time spent up to now is        2.0 secs

     Computing kpt #:    48
     total cpu time spent up to now is        2.1 secs

     Computing kpt #:    49
     total cpu time spent up to now is        2.1 secs

     Computing kpt #:    50
     total cpu time spent up to now is        2.1 secs

     Computing kpt #:    51
     total cpu time spent up to now is        2.2 secs

     Computing kpt #:    52
     total cpu time spent up to now is        2.2 secs

     Computing kpt #:    53
     total cpu time spent up to now is        2.2 secs

     Computing kpt #:    54
     total cpu time spent up to now is        2.3 secs

     ethr =  6.25E-09,  avg # of iterations = 14.6

     total cpu time spent up to now is        2.3 secs

     End of band structure calculation

 ------ SPIN UP ------------


          k = 0.0000 0.0000 0.0000 (  2545 PWs)   bands (ev):

   -65.6961 -32.6661 -32.6661 -32.6470  -3.2664   6.1534   9.5958   9.5958
    10.7026  15.5506  15.5506  17.4362  19.1822

     occupation numbers 
     1.0000   1.0000   1.0000   1.0000   1.0000   1.0000  -0.0000  -0.0000
    -0.0000  -0.0000  -0.0000  -0.0000  -0.0000

          k = 0.0000 0.0000 0.1739 (  2563 PWs)   bands (ev):

   -65.6961 -32.6659 -32.6659 -32.6495  -2.9318   4.2218   9.7151   9.7151
    13.4359  15.6614  15.6614  17.3542  19.1963

     occupation numbers 
     1.0000   1.0000   1.0000   1.0000   1.0000   1.0000  -0.0000  -0.0000
    -0.0000  -0.0000  -0.0000  -0.0000  -0.0000

          k = 0.0000 0.0000 0.3479 (  2564 PWs)   bands (ev):

   -65.6959 -32.6656 -32.6656 -32.6536  -2.1701   2.0543   9.9226   9.9226
    15.8594  15.8594  17.2280  17.8230  19.2160

     occupation numbers 
     1.0000   1.0000   1.0000   1.0000   1.0000   1.0000  -0.0000  -0.0000
    -0.0000  -0.0000  -0.0000  -0.0000  -0.0000

          k = 0.0000 0.0000 0.5218 (  2564 PWs)   bands (ev):

   -65.6959 -32.6656 -32.6656 -32.6536  -2.1701   2.0543   9.9226   9.9226
    15.8594  15.8594  17.2280  17.8230  19.2160

     occupation numbers 
     1.0000   1.0000   1.0000   1.0000   1.0000   1.0000  -0.0000  -0.0000
    -0.0000  -0.0000  -0.0000  -0.0000  -0.0000

          k = 0.0000 0.0000 0.6957 (  2563 PWs)   bands (ev):

   -65.6961 -32.6659 -32.6659 -32.6495  -2.9318   4.2218   9.7151   9.7151
    13.4359  15.6614  15.6614  17.3542  19.1963

     occupation numbers 
     1.0000   1.0000   1.0000   1.0000   1.0000   1.0000  -0.0000  -0.0000
    -0.0000  -0.0000  -0.0000  -0.0000  -0.0000

          k = 0.0000 0.1443 0.0000 (  2557 PWs)   bands (ev):

   -65.6956 -32.6722 -32.6676 -32.6461  -2.9923   6.4206   8.3228   9.0084
    10.9523  15.3004  16.6887  17.9920  18.2398

     occupation numbers 
     1.0000   1.0000   1.0000   1.0000   1.0000   1.0000   1.0000   1.0000
    -0.0000  -0.0000  -0.0000  -0.0000  -0.0000

          k = 0.0000 0.1443 0.1739 (  2552 PWs)   bands (ev):

   -65.6955 -32.6720 -32.6674 -32.6486  -2.6628   4.5047   8.4762   9.1208
    13.6165  15.5129  16.7176  16.8081  19.1863

     occupation numbers 
     1.0000   1.0000   1.0000   1.0000   1.0000   1.0000   1.0000   1.0000
    -0.0000  -0.0000  -0.0000  -0.0000  -0.0000

          k = 0.0000 0.1443 0.3479 (  2550 PWs)   bands (ev):

   -65.6954 -32.6716 -32.6671 -32.6526  -1.9174   2.3609   8.7482   9.3160
    15.5132  15.8075  17.0228  18.1032  19.7720

     occupation numbers 
     1.0000   1.0000   1.0000   1.0000   1.0000   1.0000   1.0000  -0.0000
    -0.0000  -0.0000  -0.0000  -0.0000  -0.0000

          k = 0.0000 0.1443 0.5218 (  2550 PWs)   bands (ev):

   -65.6954 -32.6716 -32.6671 -32.6526  -1.9174   2.3609   8.7482   9.3160
    15.5132  15.8075  17.0228  18.1032  19.7720

     occupation numbers 
     1.0000   1.0000   1.0000   1.0000   1.0000   1.0000   1.0000  -0.0000
    -0.0000  -0.0000  -0.0000  -0.0000  -0.0000

          k = 0.0000 0.1443 0.6957 (  2552 PWs)   bands (ev):

   -65.6955 -32.6720 -32.6674 -32.6486  -2.6628   4.5047   8.4762   9.1208
    13.6165  15.5129  16.7176  16.8081  19.1863

     occupation numbers 
     1.0000   1.0000   1.0000   1.0000   1.0000   1.0000   1.0000   1.0000
    -0.0000  -0.0000  -0.0000  -0.0000  -0.0000

          k = 0.0000 0.2887 0.0000 (  2531 PWs)   bands (ev):

   -65.6943 -32.6868 -32.6711 -32.6439  -2.1780   5.8270   7.2073   8.0082
    11.6862  14.5820  16.0208  18.4627  19.2716

     occupation numbers 
     1.0000   1.0000   1.0000   1.0000   1.0000   1.0000   1.0000   1.0000
    -0.0000  -0.0000  -0.0000  -0.0000  -0.0000

          k = 0.0000 0.2887 0.1739 (  2543 PWs)   bands (ev):

   -65.6942 -32.6865 -32.6709 -32.6463  -1.8632   5.3276   6.0390   8.1110
    13.7727  14.5103  15.2989  19.3921  19.9616

     occupation numbers 
     1.0000   1.0000   1.0000   1.0000   1.0000   1.0000   1.0000   1.0000
    -0.0000  -0.0000  -0.0000  -0.0000  -0.0000

          k = 0.0000 0.2887 0.3479 (  2555 PWs)   bands (ev):

   -65.6941 -32.6861 -32.6706 -32.6502  -1.1636   3.2627   6.3978   8.2893
    12.6314  15.3315  18.6947  19.3130  19.7073

     occupation numbers 
     1.0000   1.0000   1.0000   1.0000   1.0000   1.0000   1.0000   1.0000
    -0.0000  -0.0000  -0.0000  -0.0000  -0.0000

          k = 0.0000 0.2887 0.5218 (  2555 PWs)   bands (ev):

   -65.6941 -32.6861 -32.6706 -32.6502  -1.1636   3.2627   6.3978   8.2893
    12.6314  15.3315  18.6947  19.3130  19.7073

     occupation numbers 
     1.0000   1.0000   1.0000   1.0000   1.0000   1.0000   1.0000   1.0000
    -0.0000  -0.0000  -0.0000  -0.0000  -0.0000

          k = 0.0000 0.2887 0.6957 (  2543 PWs)   bands (ev):

   -65.6942 -32.6865 -32.6709 -32.6463  -1.8632   5.3276   6.0390   8.1110
    13.7727  14.5103  15.2989  19.3921  19.9616

     occupation numbers 
     1.0000   1.0000   1.0000   1.0000   1.0000   1.0000   1.0000   1.0000
    -0.0000  -0.0000  -0.0000  -0.0000  -0.0000

          k = 0.0000 0.4330 0.0000 (  2532 PWs)   bands (ev):

   -65.6931 -32.7013 -32.6747 -32.6418  -0.8506   3.2833   7.2813   8.4202
    12.6757  13.5957  14.1422  17.2863  22.0077

     occupation numbers 
     1.0000   1.0000   1.0000   1.0000   1.0000   1.0000   1.0000   1.0000
    -0.0000  -0.0000  -0.0000  -0.0000  -0.0000

          k = 0.0000 0.4330 0.1739 (  2540 PWs)   bands (ev):

   -65.6930 -32.7010 -32.6744 -32.6441  -0.5587   3.5132   6.6545   7.3780
    11.5933  14.1155  15.8930  19.1950  20.2508

     occupation numbers 
     1.0000   1.0000   1.0000   1.0000   1.0000   1.0000   1.0000   1.0000
    -0.0000  -0.0000  -0.0000  -0.0000  -0.0000

          k = 0.0000 0.4330 0.3479 (  2528 PWs)   bands (ev):

   -65.6928 -32.7006 -32.6741 -32.6478   0.0742   3.9733   4.6840   7.5452
     9.8412  14.9145  18.5187  18.5742  20.1955

     occupation numbers 
     1.0000   1.0000   1.0000   1.0000   1.0000   1.0000   1.0000   1.0000
    -0.0000  -0.0000  -0.0000  -0.0000  -0.0000

          k = 0.0000 0.4330 0.5218 (  2528 PWs)   bands (ev):

   -65.6928 -32.7006 -32.6741 -32.6478   0.0742   3.9733   4.6840   7.5452
     9.8412  14.9145  18.5187  18.5742  20.1955

     occupation numbers 
     1.0000   1.0000   1.0000   1.0000   1.0000   1.0000   1.0000   1.0000
    -0.0000  -0.0000  -0.0000  -0.0000  -0.0000

          k = 0.0000 0.4330 0.6957 (  2540 PWs)   bands (ev):

   -65.6930 -32.7010 -32.6744 -32.6441  -0.5587   3.5132   6.6545   7.3780
    11.5933  14.1155  15.8930  19.1950  20.2508

     occupation numbers 
     1.0000   1.0000   1.0000   1.0000   1.0000   1.0000   1.0000   1.0000
    -0.0000  -0.0000  -0.0000  -0.0000  -0.0000

          k = 0.0000 0.5774 0.0000 (  2542 PWs)   bands (ev):

   -65.6925 -32.7073 -32.6761 -32.6409   0.6748   1.3302   7.0255   9.3544
    12.2106  13.0993  14.3882  16.2234  21.6790

     occupation numbers 
     1.0000   1.0000   1.0000   1.0000   1.0000   1.0000   1.0000  -0.0000
    -0.0000  -0.0000  -0.0000  -0.0000  -0.0000

          k = 0.0000 0.5774 0.1739 (  2532 PWs)   bands (ev):

   -65.6924 -32.7070 -32.6759 -32.6431   0.9381   1.5943   7.1201   7.7421
    10.0744  13.9479  16.7946  18.2249  20.0095

     occupation numbers 
     1.0000   1.0000   1.0000   1.0000   1.0000   1.0000   1.0000   1.0000
    -0.0000  -0.0000  -0.0000  -0.0000  -0.0000

          k = 0.0000 0.5774 0.3479 (  2518 PWs)   bands (ev):

   -65.6923 -32.7065 -32.6755 -32.6469   1.5093   2.1245   5.8933   7.2835
     8.1508  14.7579  18.2364  18.3171  20.8673

     occupation numbers 
     1.0000   1.0000   1.0000   1.0000   1.0000   1.0000   1.0000   1.0000
     1.0000  -0.0000  -0.0000  -0.0000  -0.0000

          k = 0.0000 0.5774 0.5218 (  2518 PWs)   bands (ev):

   -65.6923 -32.7065 -32.6755 -32.6469   1.5093   2.1245   5.8933   7.2835
     8.1508  14.7579  18.2364  18.3171  20.8673

     occupation numbers 
     1.0000   1.0000   1.0000   1.0000   1.0000   1.0000   1.0000   1.0000
     1.0000  -0.0000  -0.0000  -0.0000  -0.0000

          k = 0.0000 0.5774 0.6957 (  2532 PWs)   bands (ev):

   -65.6924 -32.7070 -32.6759 -32.6431   0.9381   1.5943   7.1201   7.7421
    10.0744  13.9479  16.7946  18.2249  20.0095

     occupation numbers 
     1.0000   1.0000   1.0000   1.0000   1.0000   1.0000   1.0000   1.0000
    -0.0000  -0.0000  -0.0000  -0.0000  -0.0000

          k = 0.0000 0.7217 0.0000 (  2532 PWs)   bands (ev):

   -65.6931 -32.7013 -32.6747 -32.6418  -0.8506   3.2833   7.2813   8.4202
    12.6757  13.5957  14.1422  17.2863  22.0077

     occupation numbers 
     1.0000   1.0000   1.0000   1.0000   1.0000   1.0000   1.0000   1.0000
    -0.0000  -0.0000  -0.0000  -0.0000  -0.0000

          k = 0.0000 0.7217 0.1739 (  2540 PWs)   bands (ev):

   -65.6930 -32.7010 -32.6744 -32.6441  -0.5587   3.5132   6.6545   7.3780
    11.5933  14.1155  15.8930  19.1950  20.2508

     occupation numbers 
     1.0000   1.0000   1.0000   1.0000   1.0000   1.0000   1.0000   1.0000
    -0.0000  -0.0000  -0.0000  -0.0000  -0.0000

          k = 0.0000 0.7217 0.3479 (  2528 PWs)   bands (ev):

   -65.6928 -32.7006 -32.6741 -32.6478   0.0742   3.9733   4.6840   7.5452
     9.8412  14.9145  18.5187  18.5742  20.1955

     occupation numbers 
     1.0000   1.0000   1.0000   1.0000   1.0000   1.0000   1.0000   1.0000
    -0.0000  -0.0000  -0.0000  -0.0000  -0.0000

          k = 0.0000 0.7217 0.5218 (  2528 PWs)   bands (ev):

   -65.6928 -32.7006 -32.6741 -32.6478   0.0742   3.9733   4.6840   7.5452
     9.8412  14.9145  18.5187  18.5742  20.1955

     occupation numbers 
     1.0000   1.0000   1.0000   1.0000   1.0000   1.0000   1.0000   1.0000
    -0.0000  -0.0000  -0.0000  -0.0000  -0.0000

          k = 0.0000 0.7217 0.6957 (  2540 PWs)   bands (ev):

   -65.6930 -32.7010 -32.6744 -32.6441  -0.5587   3.5132   6.6545   7.3780
    11.5933  14.1155  15.8930  19.1950  20.2508

     occupation numbers 
     1.0000   1.0000   1.0000   1.0000   1.0000   1.0000   1.0000   1.0000
    -0.0000  -0.0000  -0.0000  -0.0000  -0.0000

          k = 0.0000 0.8660 0.0000 (  2531 PWs)   bands (ev):

   -65.6943 -32.6868 -32.6711 -32.6439  -2.1780   5.8270   7.2073   8.0082
    11.6862  14.5820  16.0208  18.4627  19.2716

     occupation numbers 
     1.0000   1.0000   1.0000   1.0000   1.0000   1.0000   1.0000   1.0000
    -0.0000  -0.0000  -0.0000  -0.0000  -0.0000

          k = 0.0000 0.8660 0.1739 (  2543 PWs)   bands (ev):

   -65.6942 -32.6865 -32.6709 -32.6463  -1.8632   5.3276   6.0390   8.1110
    13.7727  14.5103  15.2989  19.3921  19.9616

     occupation numbers 
     1.0000   1.0000   1.0000   1.0000   1.0000   1.0000   1.0000   1.0000
    -0.0000  -0.0000  -0.0000  -0.0000  -0.0000

          k = 0.0000 0.8660 0.3479 (  2555 PWs)   bands (ev):

   -65.6941 -32.6861 -32.6706 -32.6502  -1.1636   3.2627   6.3978   8.2893
    12.6314  15.3315  18.6947  19.3130  19.7073

     occupation numbers 
     1.0000   1.0000   1.0000   1.0000   1.0000   1.0000   1.0000   1.0000
    -0.0000  -0.0000  -0.0000  -0.0000  -0.0000

          k = 0.0000 0.8660 0.5218 (  2555 PWs)   bands (ev):

   -65.6941 -32.6861 -32.6706 -32.6502  -1.1636   3.2627   6.3978   8.2893
    12.6314  15.3315  18.6947  19.3130  19.7073

     occupation numbers 
     1.0000   1.0000   1.0000   1.0000   1.0000   1.0000   1.0000   1.0000
    -0.0000  -0.0000  -0.0000  -0.0000  -0.0000

          k = 0.0000 0.8660 0.6957 (  2543 PWs)   bands (ev):

   -65.6942 -32.6865 -32.6709 -32.6463  -1.8632   5.3276   6.0390   8.1110
    13.7727  14.5103  15.2989  19.3921  19.9616

     occupation numbers 
     1.0000   1.0000   1.0000   1.0000   1.0000   1.0000   1.0000   1.0000
    -0.0000  -0.0000  -0.0000  -0.0000  -0.0000

          k = 0.0000 1.0104 0.0000 (  2557 PWs)   bands (ev):

   -65.6956 -32.6722 -32.6676 -32.6461  -2.9923   6.4206   8.3228   9.0084
    10.9523  15.3004  16.6887  17.9920  18.2398

     occupation numbers 
     1.0000   1.0000   1.0000   1.0000   1.0000   1.0000   1.0000   1.0000
    -0.0000  -0.0000  -0.0000  -0.0000  -0.0000

          k = 0.0000 1.0104 0.1739 (  2552 PWs)   bands (ev):

   -65.6955 -32.6720 -32.6674 -32.6486  -2.6628   4.5047   8.4762   9.1208
    13.6165  15.5129  16.7176  16.8081  19.1863

     occupation numbers 
     1.0000   1.0000   1.0000   1.0000   1.0000   1.0000   1.0000   1.0000
    -0.0000  -0.0000  -0.0000  -0.0000  -0.0000

          k = 0.0000 1.0104 0.3479 (  2550 PWs)   bands (ev):

   -65.6954 -32.6716 -32.6671 -32.6526  -1.9174   2.3609   8.7482   9.3160
    15.5132  15.8075  17.0228  18.1032  19.7720

     occupation numbers 
     1.0000   1.0000   1.0000   1.0000   1.0000   1.0000   1.0000  -0.0000
    -0.0000  -0.0000  -0.0000  -0.0000  -0.0000

          k = 0.0000 1.0104 0.5218 (  2550 PWs)   bands (ev):

   -65.6954 -32.6716 -32.6671 -32.6526  -1.9174   2.3609   8.7482   9.3160
    15.5132  15.8075  17.0228  18.1032  19.7720

     occupation numbers 
     1.0000   1.0000   1.0000   1.0000   1.0000   1.0000   1.0000  -0.0000
    -0.0000  -0.0000  -0.0000  -0.0000  -0.0000

          k = 0.0000 1.0104 0.6957 (  2552 PWs)   bands (ev):

   -65.6955 -32.6720 -32.6674 -32.6486  -2.6628   4.5047   8.4762   9.1208
    13.6165  15.5129  16.7176  16.8081  19.1863

     occupation numbers 
     1.0000   1.0000   1.0000   1.0000   1.0000   1.0000   1.0000   1.0000
    -0.0000  -0.0000  -0.0000  -0.0000  -0.0000

          k = 0.1250 0.0722 0.0000 (  2557 PWs)   bands (ev):

   -65.6956 -32.6722 -32.6676 -32.6461  -2.9923   6.4206   8.3228   9.0084
    10.9523  15.3004  16.6887  17.9920  18.2398

     occupation numbers 
     1.0000   1.0000   1.0000   1.0000   1.0000   1.0000   1.0000   1.0000
    -0.0000  -0.0000  -0.0000  -0.0000  -0.0000

          k = 0.1250 0.0722 0.1739 (  2552 PWs)   bands (ev):

   -65.6955 -32.6720 -32.6674 -32.6486  -2.6628   4.5047   8.4762   9.1208
    13.6165  15.5129  16.7176  16.8081  19.1863

     occupation numbers 
     1.0000   1.0000   1.0000   1.0000   1.0000   1.0000   1.0000   1.0000
    -0.0000  -0.0000  -0.0000  -0.0000  -0.0000

          k = 0.1250 0.0722 0.3479 (  2550 PWs)   bands (ev):

   -65.6954 -32.6716 -32.6671 -32.6526  -1.9174   2.3609   8.7482   9.3160
    15.5132  15.8075  17.0228  18.1032  19.7720

     occupation numbers 
     1.0000   1.0000   1.0000   1.0000   1.0000   1.0000   1.0000  -0.0000
    -0.0000  -0.0000  -0.0000  -0.0000  -0.0000

          k = 0.1250 0.0722 0.5218 (  2550 PWs)   bands (ev):

   -65.6954 -32.6716 -32.6671 -32.6526  -1.9174   2.3609   8.7482   9.3160
    15.5132  15.8075  17.0228  18.1032  19.7720

     occupation numbers 
     1.0000   1.0000   1.0000   1.0000   1.0000   1.0000   1.0000  -0.0000
    -0.0000  -0.0000  -0.0000  -0.0000  -0.0000

          k = 0.1250 0.0722 0.6957 (  2552 PWs)   bands (ev):

   -65.6955 -32.6720 -32.6674 -32.6486  -2.6628   4.5047   8.4762   9.1208
    13.6165  15.5129  16.7176  16.8081  19.1863

     occupation numbers 
     1.0000   1.0000   1.0000   1.0000   1.0000   1.0000   1.0000   1.0000
    -0.0000  -0.0000  -0.0000  -0.0000  -0.0000

          k = 0.1250 0.2165 0.0000 (  2525 PWs)   bands (ev):

   -65.6947 -32.6818 -32.6707 -32.6445  -2.4481   6.8624   6.9490   7.7324
    11.5048  15.8326  16.7012  16.7376  19.4006

     occupation numbers 
     1.0000   1.0000   1.0000   1.0000   1.0000   1.0000   1.0000   1.0000
    -0.0000  -0.0000  -0.0000  -0.0000  -0.0000

          k = 0.1250 0.2165 0.1739 (  2535 PWs)   bands (ev):

   -65.6946 -32.6816 -32.6705 -32.6470  -2.1285   5.0623   7.0390   7.8768
    14.0960  14.9885  16.0969  17.4252  20.0840

     occupation numbers 
     1.0000   1.0000   1.0000   1.0000   1.0000   1.0000   1.0000   1.0000
    -0.0000  -0.0000  -0.0000  -0.0000  -0.0000

          k = 0.1250 0.2165 0.3479 (  2555 PWs)   bands (ev):

   -65.6945 -32.6812 -32.6702 -32.6509  -1.4141   2.9657   7.3738   8.0988
    13.5607  16.2846  17.7747  17.9753  18.8934

     occupation numbers 
     1.0000   1.0000   1.0000   1.0000   1.0000   1.0000   1.0000   1.0000
    -0.0000  -0.0000  -0.0000  -0.0000  -0.0000

          k = 0.1250 0.2165 0.5218 (  2555 PWs)   bands (ev):

   -65.6945 -32.6812 -32.6702 -32.6509  -1.4141   2.9657   7.3738   8.0988
    13.5607  16.2846  17.7747  17.9753  18.8934

     occupation numbers 
     1.0000   1.0000   1.0000   1.0000   1.0000   1.0000   1.0000   1.0000
    -0.0000  -0.0000  -0.0000  -0.0000  -0.0000

          k = 0.1250 0.2165 0.6957 (  2535 PWs)   bands (ev):

   -65.6946 -32.6816 -32.6705 -32.6470  -2.1285   5.0623   7.0390   7.8768
    14.0960  14.9885  16.0969  17.4252  20.0840

     occupation numbers 
     1.0000   1.0000   1.0000   1.0000   1.0000   1.0000   1.0000   1.0000
    -0.0000  -0.0000  -0.0000  -0.0000  -0.0000

          k = 0.1250 0.3608 0.0000 (  2542 PWs)   bands (ev):

   -65.6934 -32.6949 -32.6758 -32.6424  -1.3768   4.6220   6.5448   7.9689
    12.5235  14.5612  15.4122  17.5147  20.3771

     occupation numbers 
     1.0000   1.0000   1.0000   1.0000   1.0000   1.0000   1.0000   1.0000
    -0.0000  -0.0000  -0.0000  -0.0000  -0.0000

          k = 0.1250 0.3608 0.1739 (  2538 PWs)   bands (ev):

   -65.6933 -32.6946 -32.6755 -32.6447  -1.0759   4.8287   6.1351   6.7178
    12.7266  14.9621  15.9849  18.2410  19.1595

     occupation numbers 
     1.0000   1.0000   1.0000   1.0000   1.0000   1.0000   1.0000   1.0000
    -0.0000  -0.0000  -0.0000  -0.0000  -0.0000

          k = 0.1250 0.3608 0.3479 (  2542 PWs)   bands (ev):

   -65.6932 -32.6942 -32.6752 -32.6485  -0.4178   4.1320   5.2512   6.9501
    11.0505  16.0569  16.5751  19.5157  19.8848

     occupation numbers 
     1.0000   1.0000   1.0000   1.0000   1.0000   1.0000   1.0000   1.0000
    -0.0000  -0.0000  -0.0000  -0.0000  -0.0000

          k = 0.1250 0.3608 0.5218 (  2542 PWs)   bands (ev):

   -65.6932 -32.6942 -32.6752 -32.6485  -0.4178   4.1320   5.2512   6.9501
    11.0505  16.0569  16.5751  19.5157  19.8848

     occupation numbers 
     1.0000   1.0000   1.0000   1.0000   1.0000   1.0000   1.0000   1.0000
    -0.0000  -0.0000  -0.0000  -0.0000  -0.0000

          k = 0.1250 0.3608 0.6957 (  2538 PWs)   bands (ev):

   -65.6933 -32.6946 -32.6755 -32.6447  -1.0759   4.8287   6.1351   6.7178
    12.7266  14.9621  15.9849  18.2410  19.1595

     occupation numbers 
     1.0000   1.0000   1.0000   1.0000   1.0000   1.0000   1.0000   1.0000
    -0.0000  -0.0000  -0.0000  -0.0000  -0.0000

          k = 0.1250 0.5052 0.0000 (  2531 PWs)   bands (ev):

   -65.6925 -32.7041 -32.6794 -32.6409   0.1688   2.3017   5.9944   9.2558
    12.5343  13.7856  14.7934  16.7867  19.8326

     occupation numbers 
     1.0000   1.0000   1.0000   1.0000   1.0000   1.0000   1.0000   0.0833
    -0.0000  -0.0000  -0.0000  -0.0000  -0.0000

          k = 0.1250 0.5052 0.1739 (  2531 PWs)   bands (ev):

   -65.6924 -32.7038 -32.6792 -32.6431   0.4436   2.5462   6.1366   7.5719
    10.5917  15.1849  16.5067  17.4305  19.2597

     occupation numbers 
     1.0000   1.0000   1.0000   1.0000   1.0000   1.0000   1.0000   1.0000
    -0.0000  -0.0000  -0.0000  -0.0000  -0.0000

          k = 0.1250 0.5052 0.3479 (  2529 PWs)   bands (ev):

   -65.6923 -32.7033 -32.6788 -32.6469   1.0313   3.0425   5.6685   6.4082
     8.7342  15.3148  16.2434  20.6680  21.4291

     occupation numbers 
     1.0000   1.0000   1.0000   1.0000   1.0000   1.0000   1.0000   1.0000
     1.0000  -0.0000  -0.0000  -0.0000  -0.0000

          k = 0.1250 0.5052 0.5218 (  2529 PWs)   bands (ev):

   -65.6923 -32.7033 -32.6788 -32.6469   1.0313   3.0425   5.6685   6.4082
     8.7342  15.3148  16.2434  20.6680  21.4291

     occupation numbers 
     1.0000   1.0000   1.0000   1.0000   1.0000   1.0000   1.0000   1.0000
     1.0000  -0.0000  -0.0000  -0.0000  -0.0000

          k = 0.1250 0.5052 0.6957 (  2531 PWs)   bands (ev):

   -65.6924 -32.7038 -32.6792 -32.6431   0.4436   2.5462   6.1366   7.5719
    10.5917  15.1849  16.5067  17.4305  19.2597

     occupation numbers 
     1.0000   1.0000   1.0000   1.0000   1.0000   1.0000   1.0000   1.0000
    -0.0000  -0.0000  -0.0000  -0.0000  -0.0000

[...]

          k = 0.7500 1.1547 0.5218 (  2524 PWs)   bands (ev):

   -65.6919 -32.6991 -32.6882 -32.6462   2.1912   2.7391   4.5745   6.7664
     8.0110  13.3688  18.8453  21.0338  21.7408

     occupation numbers 
     1.0000   1.0000   1.0000   1.0000   1.0000   1.0000   1.0000   1.0000
     1.0000  -0.0000  -0.0000  -0.0000  -0.0000

          k = 0.7500 1.1547 0.6957 (  2528 PWs)   bands (ev):

   -65.6921 -32.6996 -32.6886 -32.6425   1.6462   2.2350   4.2002   8.6034
     9.8517  15.2598  17.2853  17.4620  19.4551

     occupation numbers 
     1.0000   1.0000   1.0000   1.0000   1.0000   1.0000   1.0000   1.0000
    -0.0000  -0.0000  -0.0000  -0.0000  -0.0000

          k = 0.7500 1.2990 0.0000 (  2542 PWs)   bands (ev):

   -65.6925 -32.6995 -32.6839 -32.6409  -0.0780   3.5172   4.5903   9.1688
    12.8862  13.7700  16.1644  17.5383  18.8001

     occupation numbers 
     1.0000   1.0000   1.0000   1.0000   1.0000   1.0000   1.0000   1.0000
    -0.0000  -0.0000  -0.0000  -0.0000  -0.0000

          k = 0.7500 1.2990 0.1739 (  2541 PWs)   bands (ev):

   -65.6924 -32.6993 -32.6837 -32.6432   0.2011   3.7450   4.7699   7.4361
    11.1382  15.8186  16.2852  18.0896  18.6624

     occupation numbers 
     1.0000   1.0000   1.0000   1.0000   1.0000   1.0000   1.0000   1.0000
    -0.0000  -0.0000  -0.0000  -0.0000  -0.0000

          k = 0.7500 1.2990 0.3479 (  2521 PWs)   bands (ev):

   -65.6923 -32.6988 -32.6833 -32.6469   0.7986   4.2103   5.0984   5.5157
     9.3729  14.1121  18.5432  19.5523  20.7103

     occupation numbers 
     1.0000   1.0000   1.0000   1.0000   1.0000   1.0000   1.0000   1.0000
    -0.0000  -0.0000  -0.0000  -0.0000  -0.0000

          k = 0.7500 1.2990 0.5218 (  2521 PWs)   bands (ev):

   -65.6923 -32.6988 -32.6833 -32.6469   0.7986   4.2103   5.0984   5.5157
     9.3729  14.1121  18.5432  19.5523  20.7103

     occupation numbers 
     1.0000   1.0000   1.0000   1.0000   1.0000   1.0000   1.0000   1.0000
    -0.0000  -0.0000  -0.0000  -0.0000  -0.0000

          k = 0.7500 1.2990 0.6957 (  2541 PWs)   bands (ev):

   -65.6924 -32.6993 -32.6837 -32.6432   0.2011   3.7450   4.7699   7.4361
    11.1382  15.8186  16.2852  18.0896  18.6624

     occupation numbers 
     1.0000   1.0000   1.0000   1.0000   1.0000   1.0000   1.0000   1.0000
    -0.0000  -0.0000  -0.0000  -0.0000  -0.0000

          k = 0.7500 1.4434 0.0000 (  2542 PWs)   bands (ev):

   -65.6934 -32.6949 -32.6758 -32.6424  -1.3768   4.6220   6.5448   7.9689
    12.5235  14.5612  15.4122  17.5147  20.3771

     occupation numbers 
     1.0000   1.0000   1.0000   1.0000   1.0000   1.0000   1.0000   1.0000
    -0.0000  -0.0000  -0.0000  -0.0000  -0.0000

          k = 0.7500 1.4434 0.1739 (  2538 PWs)   bands (ev):

   -65.6933 -32.6946 -32.6755 -32.6447  -1.0759   4.8287   6.1351   6.7178
    12.7266  14.9621  15.9849  18.2410  19.1595

     occupation numbers 
     1.0000   1.0000   1.0000   1.0000   1.0000   1.0000   1.0000   1.0000
    -0.0000  -0.0000  -0.0000  -0.0000  -0.0000

          k = 0.7500 1.4434 0.3479 (  2542 PWs)   bands (ev):

   -65.6932 -32.6942 -32.6752 -32.6485  -0.4178   4.1320   5.2512   6.9501
    11.0505  16.0569  16.5751  19.5157  19.8848

     occupation numbers 
     1.0000   1.0000   1.0000   1.0000   1.0000   1.0000   1.0000   1.0000
    -0.0000  -0.0000  -0.0000  -0.0000  -0.0000

          k = 0.7500 1.4434 0.5218 (  2542 PWs)   bands (ev):

   -65.6932 -32.6942 -32.6752 -32.6485  -0.4178   4.1320   5.2512   6.9501
    11.0505  16.0569  16.5751  19.5157  19.8848

     occupation numbers 
     1.0000   1.0000   1.0000   1.0000   1.0000   1.0000   1.0000   1.0000
    -0.0000  -0.0000  -0.0000  -0.0000  -0.0000

          k = 0.7500 1.4434 0.6957 (  2538 PWs)   bands (ev):

   -65.6933 -32.6946 -32.6755 -32.6447  -1.0759   4.8287   6.1351   6.7178
    12.7266  14.9621  15.9849  18.2410  19.1595

     occupation numbers 
     1.0000   1.0000   1.0000   1.0000   1.0000   1.0000   1.0000   1.0000
    -0.0000  -0.0000  -0.0000  -0.0000  -0.0000

          k = 0.8750 0.5052 0.0000 (  2557 PWs)   bands (ev):

   -65.6956 -32.6722 -32.6676 -32.6461  -2.9923   6.4206   8.3228   9.0084
    10.9523  15.3004  16.6887  17.9920  18.2398

     occupation numbers 
     1.0000   1.0000   1.0000   1.0000   1.0000   1.0000   1.0000   1.0000
    -0.0000  -0.0000  -0.0000  -0.0000  -0.0000

          k = 0.8750 0.5052 0.1739 (  2552 PWs)   bands (ev):

   -65.6955 -32.6720 -32.6674 -32.6486  -2.6628   4.5047   8.4762   9.1208
    13.6165  15.5129  16.7176  16.8081  19.1863

     occupation numbers 
     1.0000   1.0000   1.0000   1.0000   1.0000   1.0000   1.0000   1.0000
    -0.0000  -0.0000  -0.0000  -0.0000  -0.0000

          k = 0.8750 0.5052 0.3479 (  2550 PWs)   bands (ev):

   -65.6954 -32.6716 -32.6671 -32.6526  -1.9174   2.3609   8.7482   9.3160
    15.5132  15.8075  17.0228  18.1032  19.7720

     occupation numbers 
     1.0000   1.0000   1.0000   1.0000   1.0000   1.0000   1.0000  -0.0000
    -0.0000  -0.0000  -0.0000  -0.0000  -0.0000

          k = 0.8750 0.5052 0.5218 (  2550 PWs)   bands (ev):

   -65.6954 -32.6716 -32.6671 -32.6526  -1.9174   2.3609   8.7482   9.3160
    15.5132  15.8075  17.0228  18.1032  19.7720

     occupation numbers 
     1.0000   1.0000   1.0000   1.0000   1.0000   1.0000   1.0000  -0.0000
    -0.0000  -0.0000  -0.0000  -0.0000  -0.0000

          k = 0.8750 0.5052 0.6957 (  2552 PWs)   bands (ev):

   -65.6955 -32.6720 -32.6674 -32.6486  -2.6628   4.5047   8.4762   9.1208
    13.6165  15.5129  16.7176  16.8081  19.1863

     occupation numbers 
     1.0000   1.0000   1.0000   1.0000   1.0000   1.0000   1.0000   1.0000
    -0.0000  -0.0000  -0.0000  -0.0000  -0.0000

          k = 0.8750 0.6495 0.0000 (  2557 PWs)   bands (ev):

   -65.6956 -32.6722 -32.6676 -32.6461  -2.9923   6.4206   8.3228   9.0084
    10.9523  15.3004  16.6887  17.9920  18.2398

     occupation numbers 
     1.0000   1.0000   1.0000   1.0000   1.0000   1.0000   1.0000   1.0000
    -0.0000  -0.0000  -0.0000  -0.0000  -0.0000

          k = 0.8750 0.6495 0.1739 (  2552 PWs)   bands (ev):

   -65.6955 -32.6720 -32.6674 -32.6486  -2.6628   4.5047   8.4762   9.1208
    13.6165  15.5129  16.7176  16.8081  19.1863

     occupation numbers 
     1.0000   1.0000   1.0000   1.0000   1.0000   1.0000   1.0000   1.0000
    -0.0000  -0.0000  -0.0000  -0.0000  -0.0000

          k = 0.8750 0.6495 0.3479 (  2550 PWs)   bands (ev):

   -65.6954 -32.6716 -32.6671 -32.6526  -1.9174   2.3609   8.7482   9.3160
    15.5132  15.8075  17.0228  18.1032  19.7720

     occupation numbers 
     1.0000   1.0000   1.0000   1.0000   1.0000   1.0000   1.0000  -0.0000
    -0.0000  -0.0000  -0.0000  -0.0000  -0.0000

          k = 0.8750 0.6495 0.5218 (  2550 PWs)   bands (ev):

   -65.6954 -32.6716 -32.6671 -32.6526  -1.9174   2.3609   8.7482   9.3160
    15.5132  15.8075  17.0228  18.1032  19.7720

     occupation numbers 
     1.0000   1.0000   1.0000   1.0000   1.0000   1.0000   1.0000  -0.0000
    -0.0000  -0.0000  -0.0000  -0.0000  -0.0000

          k = 0.8750 0.6495 0.6957 (  2552 PWs)   bands (ev):

   -65.6955 -32.6720 -32.6674 -32.6486  -2.6628   4.5047   8.4762   9.1208
    13.6165  15.5129  16.7176  16.8081  19.1863

     occupation numbers 
     1.0000   1.0000   1.0000   1.0000   1.0000   1.0000   1.0000   1.0000
    -0.0000  -0.0000  -0.0000  -0.0000  -0.0000

          k = 0.8750 0.7939 0.0000 (  2525 PWs)   bands (ev):

   -65.6947 -32.6818 -32.6707 -32.6445  -2.4481   6.8624   6.9490   7.7324
    11.5048  15.8326  16.7012  16.7376  19.4006

     occupation numbers 
     1.0000   1.0000   1.0000   1.0000   1.0000   1.0000   1.0000   1.0000
    -0.0000  -0.0000  -0.0000  -0.0000  -0.0000

          k = 0.8750 0.7939 0.1739 (  2535 PWs)   bands (ev):

   -65.6946 -32.6816 -32.6705 -32.6470  -2.1285   5.0623   7.0390   7.8768
    14.0960  14.9885  16.0969  17.4252  20.0840

     occupation numbers 
     1.0000   1.0000   1.0000   1.0000   1.0000   1.0000   1.0000   1.0000
    -0.0000  -0.0000  -0.0000  -0.0000  -0.0000

          k = 0.8750 0.7939 0.3479 (  2555 PWs)   bands (ev):

   -65.6945 -32.6812 -32.6702 -32.6509  -1.4141   2.9657   7.3738   8.0988
    13.5607  16.2846  17.7747  17.9753  18.8934

     occupation numbers 
     1.0000   1.0000   1.0000   1.0000   1.0000   1.0000   1.0000   1.0000
    -0.0000  -0.0000  -0.0000  -0.0000  -0.0000

          k = 0.8750 0.7939 0.5218 (  2555 PWs)   bands (ev):

   -65.6945 -32.6812 -32.6702 -32.6509  -1.4141   2.9657   7.3738   8.0988
    13.5607  16.2846  17.7747  17.9753  18.8934

     occupation numbers 
     1.0000   1.0000   1.0000   1.0000   1.0000   1.0000   1.0000   1.0000
    -0.0000  -0.0000  -0.0000  -0.0000  -0.0000

          k = 0.8750 0.7939 0.6957 (  2535 PWs)   bands (ev):

   -65.6946 -32.6816 -32.6705 -32.6470  -2.1285   5.0623   7.0390   7.8768
    14.0960  14.9885  16.0969  17.4252  20.0840

     occupation numbers 
     1.0000   1.0000   1.0000   1.0000   1.0000   1.0000   1.0000   1.0000
    -0.0000  -0.0000  -0.0000  -0.0000  -0.0000

          k = 0.8750 0.9382 0.0000 (  2542 PWs)   bands (ev):

   -65.6934 -32.6949 -32.6758 -32.6424  -1.3768   4.6220   6.5448   7.9689
    12.5235  14.5612  15.4122  17.5147  20.3771

     occupation numbers 
     1.0000   1.0000   1.0000   1.0000   1.0000   1.0000   1.0000   1.0000
    -0.0000  -0.0000  -0.0000  -0.0000  -0.0000

          k = 0.8750 0.9382 0.1739 (  2538 PWs)   bands (ev):

   -65.6933 -32.6946 -32.6755 -32.6447  -1.0759   4.8287   6.1351   6.7178
    12.7266  14.9621  15.9849  18.2410  19.1595

     occupation numbers 
     1.0000   1.0000   1.0000   1.0000   1.0000   1.0000   1.0000   1.0000
    -0.0000  -0.0000  -0.0000  -0.0000  -0.0000

          k = 0.8750 0.9382 0.3479 (  2542 PWs)   bands (ev):

   -65.6932 -32.6942 -32.6752 -32.6485  -0.4178   4.1320   5.2512   6.9501
    11.0505  16.0569  16.5751  19.5157  19.8848

     occupation numbers 
     1.0000   1.0000   1.0000   1.0000   1.0000   1.0000   1.0000   1.0000
    -0.0000  -0.0000  -0.0000  -0.0000  -0.0000

          k = 0.8750 0.9382 0.5218 (  2542 PWs)   bands (ev):

   -65.6932 -32.6942 -32.6752 -32.6485  -0.4178   4.1320   5.2512   6.9501
    11.0505  16.0569  16.5751  19.5157  19.8848

     occupation numbers 
     1.0000   1.0000   1.0000   1.0000   1.0000   1.0000   1.0000   1.0000
    -0.0000  -0.0000  -0.0000  -0.0000  -0.0000

          k = 0.8750 0.9382 0.6957 (  2538 PWs)   bands (ev):

   -65.6933 -32.6946 -32.6755 -32.6447  -1.0759   4.8287   6.1351   6.7178
    12.7266  14.9621  15.9849  18.2410  19.1595

     occupation numbers 
     1.0000   1.0000   1.0000   1.0000   1.0000   1.0000   1.0000   1.0000
    -0.0000  -0.0000  -0.0000  -0.0000  -0.0000

          k = 0.8750 1.0825 0.0000 (  2531 PWs)   bands (ev):

   -65.6925 -32.7041 -32.6794 -32.6409   0.1688   2.3017   5.9944   9.2558
    12.5343  13.7856  14.7934  16.7867  19.8326

     occupation numbers 
     1.0000   1.0000   1.0000   1.0000   1.0000   1.0000   1.0000   0.0833
    -0.0000  -0.0000  -0.0000  -0.0000  -0.0000

          k = 0.8750 1.0825 0.1739 (  2531 PWs)   bands (ev):

   -65.6924 -32.7038 -32.6792 -32.6431   0.4436   2.5462   6.1366   7.5719
    10.5917  15.1849  16.5067  17.4305  19.2597

     occupation numbers 
     1.0000   1.0000   1.0000   1.0000   1.0000   1.0000   1.0000   1.0000
    -0.0000  -0.0000  -0.0000  -0.0000  -0.0000

          k = 0.8750 1.0825 0.3479 (  2529 PWs)   bands (ev):

   -65.6923 -32.7033 -32.6788 -32.6469   1.0313   3.0425   5.6685   6.4082
     8.7342  15.3148  16.2434  20.6680  21.4291

     occupation numbers 
     1.0000   1.0000   1.0000   1.0000   1.0000   1.0000   1.0000   1.0000
     1.0000  -0.0000  -0.0000  -0.0000  -0.0000

          k = 0.8750 1.0825 0.5218 (  2529 PWs)   bands (ev):

   -65.6923 -32.7033 -32.6788 -32.6469   1.0313   3.0425   5.6685   6.4082
     8.7342  15.3148  16.2434  20.6680  21.4291

     occupation numbers 
     1.0000   1.0000   1.0000   1.0000   1.0000   1.0000   1.0000   1.0000
     1.0000  -0.0000  -0.0000  -0.0000  -0.0000

          k = 0.8750 1.0825 0.6957 (  2531 PWs)   bands (ev):

   -65.6924 -32.7038 -32.6792 -32.6431   0.4436   2.5462   6.1366   7.5719
    10.5917  15.1849  16.5067  17.4305  19.2597

     occupation numbers 
     1.0000   1.0000   1.0000   1.0000   1.0000   1.0000   1.0000   1.0000
    -0.0000  -0.0000  -0.0000  -0.0000  -0.0000

          k = 0.8750 1.2269 0.0000 (  2531 PWs)   bands (ev):

   -65.6925 -32.7041 -32.6794 -32.6409   0.1688   2.3017   5.9944   9.2558
    12.5343  13.7856  14.7934  16.7867  19.8326

     occupation numbers 
     1.0000   1.0000   1.0000   1.0000   1.0000   1.0000   1.0000   0.0833
    -0.0000  -0.0000  -0.0000  -0.0000  -0.0000

          k = 0.8750 1.2269 0.1739 (  2531 PWs)   bands (ev):

   -65.6924 -32.7038 -32.6792 -32.6431   0.4436   2.5462   6.1366   7.5719
    10.5917  15.1849  16.5067  17.4305  19.2597

     occupation numbers 
     1.0000   1.0000   1.0000   1.0000   1.0000   1.0000   1.0000   1.0000
    -0.0000  -0.0000  -0.0000  -0.0000  -0.0000

          k = 0.8750 1.2269 0.3479 (  2529 PWs)   bands (ev):

   -65.6923 -32.7033 -32.6788 -32.6469   1.0313   3.0425   5.6685   6.4082
     8.7342  15.3148  16.2434  20.6680  21.4291

     occupation numbers 
     1.0000   1.0000   1.0000   1.0000   1.0000   1.0000   1.0000   1.0000
     1.0000  -0.0000  -0.0000  -0.0000  -0.0000

          k = 0.8750 1.2269 0.5218 (  2529 PWs)   bands (ev):

   -65.6923 -32.7033 -32.6788 -32.6469   1.0313   3.0425   5.6685   6.4082
     8.7342  15.3148  16.2434  20.6680  21.4291

     occupation numbers 
     1.0000   1.0000   1.0000   1.0000   1.0000   1.0000   1.0000   1.0000
     1.0000  -0.0000  -0.0000  -0.0000  -0.0000

          k = 0.8750 1.2269 0.6957 (  2531 PWs)   bands (ev):

   -65.6924 -32.7038 -32.6792 -32.6431   0.4436   2.5462   6.1366   7.5719
    10.5917  15.1849  16.5067  17.4305  19.2597

     occupation numbers 
     1.0000   1.0000   1.0000   1.0000   1.0000   1.0000   1.0000   1.0000
    -0.0000  -0.0000  -0.0000  -0.0000  -0.0000

          k = 0.8750 1.3712 0.0000 (  2542 PWs)   bands (ev):

   -65.6934 -32.6949 -32.6758 -32.6424  -1.3768   4.6220   6.5448   7.9689
    12.5235  14.5612  15.4122  17.5147  20.3771

     occupation numbers 
     1.0000   1.0000   1.0000   1.0000   1.0000   1.0000   1.0000   1.0000
    -0.0000  -0.0000  -0.0000  -0.0000  -0.0000

          k = 0.8750 1.3712 0.1739 (  2538 PWs)   bands (ev):

   -65.6933 -32.6946 -32.6755 -32.6447  -1.0759   4.8287   6.1351   6.7178
    12.7266  14.9621  15.9849  18.2410  19.1595

     occupation numbers 
     1.0000   1.0000   1.0000   1.0000   1.0000   1.0000   1.0000   1.0000
    -0.0000  -0.0000  -0.0000  -0.0000  -0.0000

          k = 0.8750 1.3712 0.3479 (  2542 PWs)   bands (ev):

   -65.6932 -32.6942 -32.6752 -32.6485  -0.4178   4.1320   5.2512   6.9501
    11.0505  16.0569  16.5751  19.5157  19.8848

     occupation numbers 
     1.0000   1.0000   1.0000   1.0000   1.0000   1.0000   1.0000   1.0000
    -0.0000  -0.0000  -0.0000  -0.0000  -0.0000

          k = 0.8750 1.3712 0.5218 (  2542 PWs)   bands (ev):

   -65.6932 -32.6942 -32.6752 -32.6485  -0.4178   4.1320   5.2512   6.9501
    11.0505  16.0569  16.5751  19.5157  19.8848

     occupation numbers 
     1.0000   1.0000   1.0000   1.0000   1.0000   1.0000   1.0000   1.0000
    -0.0000  -0.0000  -0.0000  -0.0000  -0.0000

          k = 0.8750 1.3712 0.6957 (  2538 PWs)   bands (ev):

   -65.6933 -32.6946 -32.6755 -32.6447  -1.0759   4.8287   6.1351   6.7178
    12.7266  14.9621  15.9849  18.2410  19.1595

     occupation numbers 
     1.0000   1.0000   1.0000   1.0000   1.0000   1.0000   1.0000   1.0000
    -0.0000  -0.0000  -0.0000  -0.0000  -0.0000

          k = 0.8750 1.5155 0.0000 (  2525 PWs)   bands (ev):

   -65.6947 -32.6818 -32.6707 -32.6445  -2.4481   6.8624   6.9490   7.7324
    11.5048  15.8326  16.7012  16.7376  19.4006

     occupation numbers 
     1.0000   1.0000   1.0000   1.0000   1.0000   1.0000   1.0000   1.0000
    -0.0000  -0.0000  -0.0000  -0.0000  -0.0000

          k = 0.8750 1.5155 0.1739 (  2535 PWs)   bands (ev):

   -65.6946 -32.6816 -32.6705 -32.6470  -2.1285   5.0623   7.0390   7.8768
    14.0960  14.9885  16.0969  17.4252  20.0840

     occupation numbers 
     1.0000   1.0000   1.0000   1.0000   1.0000   1.0000   1.0000   1.0000
    -0.0000  -0.0000  -0.0000  -0.0000  -0.0000

          k = 0.8750 1.5155 0.3479 (  2555 PWs)   bands (ev):

   -65.6945 -32.6812 -32.6702 -32.6509  -1.4141   2.9657   7.3738   8.0988
    13.5607  16.2846  17.7747  17.9753  18.8934

     occupation numbers 
     1.0000   1.0000   1.0000   1.0000   1.0000   1.0000   1.0000   1.0000
    -0.0000  -0.0000  -0.0000  -0.0000  -0.0000

          k = 0.8750 1.5155 0.5218 (  2555 PWs)   bands (ev):

   -65.6945 -32.6812 -32.6702 -32.6509  -1.4141   2.9657   7.3738   8.0988
    13.5607  16.2846  17.7747  17.9753  18.8934

     occupation numbers 
     1.0000   1.0000   1.0000   1.0000   1.0000   1.0000   1.0000   1.0000
    -0.0000  -0.0000  -0.0000  -0.0000  -0.0000

          k = 0.8750 1.5155 0.6957 (  2535 PWs)   bands (ev):

   -65.6946 -32.6816 -32.6705 -32.6470  -2.1285   5.0623   7.0390   7.8768
    14.0960  14.9885  16.0969  17.4252  20.0840

     occupation numbers 
     1.0000   1.0000   1.0000   1.0000   1.0000   1.0000   1.0000   1.0000
    -0.0000  -0.0000  -0.0000  -0.0000  -0.0000

     the Fermi energy is     9.2478 ev

     Writing output data file MgB2.save/
 
     init_run     :      0.05s CPU      0.07s WALL (       1 calls)
     electrons    :      1.86s CPU      1.99s WALL (       1 calls)

     Called by init_run:
     wfcinit      :      0.00s CPU      0.00s WALL (       1 calls)
     wfcinit:atom :      0.00s CPU      0.00s WALL (      54 calls)
     wfcinit:wfcr :      0.12s CPU      0.17s WALL (      54 calls)
     potinit      :      0.01s CPU      0.01s WALL (       1 calls)
     hinit0       :      0.03s CPU      0.03s WALL (       1 calls)

     Called by electrons:
     c_bands      :      1.85s CPU      1.98s WALL (       1 calls)
     v_of_rho     :      0.01s CPU      0.01s WALL (       1 calls)
     v_h          :      0.00s CPU      0.00s WALL (       1 calls)
     v_xc         :      0.01s CPU      0.01s WALL (       1 calls)

     Called by c_bands:
     init_us_2    :      0.01s CPU      0.01s WALL (      54 calls)
     cegterg      :      1.44s CPU      1.50s WALL (      54 calls)

     Called by sum_band:

     Called by *egterg:
     h_psi        :      1.06s CPU      1.10s WALL (     848 calls)
     g_psi        :      0.01s CPU      0.01s WALL (     740 calls)
     cdiaghg      :      0.29s CPU      0.35s WALL (     794 calls)
     cegterg:over :      0.09s CPU      0.09s WALL (     740 calls)
     cegterg:upda :      0.05s CPU      0.05s WALL (     740 calls)
     cegterg:last :      0.03s CPU      0.03s WALL (     162 calls)

     Called by h_psi:
     h_psi:pot    :      1.05s CPU      1.09s WALL (     848 calls)
     h_psi:calbec :      0.04s CPU      0.04s WALL (     848 calls)
     vloc_psi     :      0.98s CPU      1.02s WALL (     848 calls)
     add_vuspsi   :      0.03s CPU      0.03s WALL (     848 calls)

     General routines
     calbec       :      0.04s CPU      0.04s WALL (     848 calls)
     fft          :      0.00s CPU      0.00s WALL (      19 calls)
     fftw         :      0.84s CPU      0.87s WALL (   13330 calls)
 
     Parallel routines
     fft_scatt_xy :      0.17s CPU      0.18s WALL (   13349 calls)
     fft_scatt_yz :      0.29s CPU      0.31s WALL (   13349 calls)
 
     PWSCF        :      2.20s CPU      2.47s WALL

 
   This run was terminated on:  17: 5:20  23Sep2021            

=------------------------------------------------------------------------------=
   JOB DONE.
=------------------------------------------------------------------------------=
