
     Program PWSCF v.6.4.1 starts on 23Sep2021 at 17: 5:12 

     This program is part of the open-source Quantum ESPRESSO suite
     for quantum simulation of materials; please cite
         "P. Giannozzi et al., J. Phys.:Condens. Matter 21 395502 (2009);
         "P. Giannozzi et al., J. Phys.:Condens. Matter 29 465901 (2017);
          URL http://www.quantum-espresso.org", 
     in publications or presentations arising from this work. More details at
     http://www.quantum-espresso.org/quote

     Parallel version (MPI), running on    48 processors

     MPI processes distributed on     1 nodes
     K-points division:     npool     =      12
     R & G space division:  proc/nbgrp/npool/nimage =       4
     Reading input from scf.in

     Current dimensions of program PWSCF are:
     Max number of different atomic species (ntypx) = 10
     Max number of k-points (npk) =  40000
     Max angular momentum in pseudopotentials (lmaxx) =  3

     Subspace diagonalization in iterative solution of the eigenvalue problem:
     a serial algorithm will be used

     Message from routine setup:
     DEPRECATED: symmetry with ibrav=0, use correct ibrav instead
 
     Parallelization info
     --------------------
     sticks:   dense  smooth     PW     G-vecs:    dense   smooth      PW
     Min         192     192     57                 5062     5062     810
     Max         193     193     60                 5067     5067     811
     Sum         769     769    235                20259    20259    3243
 


     bravais-lattice index     =            0
     lattice parameter (alat)  =       5.8084  a.u.
     unit-cell volume          =     195.1435 (a.u.)^3
     number of atoms/cell      =            3
     number of atomic types    =            2
     number of electrons       =        16.00
     number of Kohn-Sham states=           12
     kinetic-energy cutoff     =      84.0000  Ry
     charge density cutoff     =     336.0000  Ry
     convergence threshold     =      3.0E-13
     mixing beta               =       0.4000
     number of iterations used =            8  plain     mixing
     Exchange-correlation      = PBESOL ( 1  4 10  8 0 0)

     celldm(1)=   5.808413  celldm(2)=   0.000000  celldm(3)=   0.000000
     celldm(4)=   0.000000  celldm(5)=   0.000000  celldm(6)=   0.000000

     crystal axes: (cart. coord. in units of alat)
               a(1) = (   1.000000   0.000000   0.000000 )  
               a(2) = (  -0.500000   0.866025   0.000000 )  
               a(3) = (   0.000000   0.000000   1.149876 )  

     reciprocal axes: (cart. coord. in units 2 pi/alat)
               b(1) = (  1.000000  0.577350  0.000000 )  
               b(2) = (  0.000000  1.154701  0.000000 )  
               b(3) = (  0.000000  0.000000  0.869659 )  


     PseudoPot. # 1 for B  read from file:
     /home/whzhang/work/packages/pseudo/ONCV_PBEsol/B.upf
     MD5 check sum: be15a878c2da379e54c8795061d47fed
     Pseudo is Norm-conserving + core correction, Zval =  3.0
     Generated using ONCVPSP code by D. R. Hamann
     Using radial grid of 1534 points,  4 beta functions with: 
                l(1) =   0
                l(2) =   0
                l(3) =   1
                l(4) =   1

     PseudoPot. # 2 for Mg read from file:
     /home/whzhang/work/packages/pseudo/ONCV_PBEsol/Mg.upf
     MD5 check sum: 8d9660e82b429ef3f9a30ab680ac0db1
     Pseudo is Norm-conserving, Zval = 10.0
     Generated using ONCVPSP code by D. R. Hamann
     Using radial grid of 1510 points,  4 beta functions with: 
                l(1) =   0
                l(2) =   0
                l(3) =   1
                l(4) =   1

     atomic species   valence    mass     pseudopotential
        B              3.00    10.81000     B ( 1.00)
        Mg            10.00    24.30000     Mg( 1.00)

     Starting magnetic structure 
     atomic species   magnetization
        B            0.000
        Mg           0.000

     24 Sym. Ops., with inversion, found


                                    s                        frac. trans.

      isym =  1     identity                                     

 cryst.   s( 1) = (     1          0          0      )
                  (     0          1          0      )
                  (     0          0          1      )

 cart.    s( 1) = (  1.0000000  0.0000000  0.0000000 )
                  (  0.0000000  1.0000000  0.0000000 )
                  (  0.0000000  0.0000000  1.0000000 )


      isym =  2     180 deg rotation - cart. axis [0,0,1]        

 cryst.   s( 2) = (    -1          0          0      )
                  (     0         -1          0      )
                  (     0          0          1      )

 cart.    s( 2) = ( -1.0000000  0.0000000  0.0000000 )
                  (  0.0000000 -1.0000000  0.0000000 )
                  (  0.0000000  0.0000000  1.0000000 )


      isym =  3     180 deg rotation - cart. axis [0,1,0]        

 cryst.   s( 3) = (    -1          0          0      )
                  (     1          1          0      )
                  (     0          0         -1      )

 cart.    s( 3) = ( -1.0000000  0.0000000  0.0000000 )
                  (  0.0000000  1.0000000  0.0000000 )
                  (  0.0000000  0.0000000 -1.0000000 )


      isym =  4     180 deg rotation - cart. axis [1,0,0]        

 cryst.   s( 4) = (     1          0          0      )
                  (    -1         -1          0      )
                  (     0          0         -1      )

 cart.    s( 4) = (  1.0000000  0.0000000  0.0000000 )
                  (  0.0000000 -1.0000000  0.0000000 )
                  (  0.0000000  0.0000000 -1.0000000 )


      isym =  5      60 deg rotation - cryst. axis [0,0,1]       

 cryst.   s( 5) = (     1          1          0      )
                  (    -1          0          0      )
                  (     0          0          1      )

 cart.    s( 5) = (  0.5000000 -0.8660254  0.0000000 )
                  (  0.8660254  0.5000000  0.0000000 )
                  (  0.0000000  0.0000000  1.0000000 )


      isym =  6      60 deg rotation - cryst. axis [0,0,-1]      

 cryst.   s( 6) = (     0         -1          0      )
                  (     1          1          0      )
                  (     0          0          1      )

 cart.    s( 6) = (  0.5000000  0.8660254  0.0000000 )
                  ( -0.8660254  0.5000000  0.0000000 )
                  (  0.0000000  0.0000000  1.0000000 )


      isym =  7     120 deg rotation - cryst. axis [0,0,1]       

 cryst.   s( 7) = (     0          1          0      )
                  (    -1         -1          0      )
                  (     0          0          1      )

 cart.    s( 7) = ( -0.5000000 -0.8660254  0.0000000 )
                  (  0.8660254 -0.5000000  0.0000000 )
                  (  0.0000000  0.0000000  1.0000000 )


      isym =  8     120 deg rotation - cryst. axis [0,0,-1]      

 cryst.   s( 8) = (    -1         -1          0      )
                  (     1          0          0      )
                  (     0          0          1      )

 cart.    s( 8) = ( -0.5000000  0.8660254  0.0000000 )
                  ( -0.8660254 -0.5000000  0.0000000 )
                  (  0.0000000  0.0000000  1.0000000 )


      isym =  9     180 deg rotation - cryst. axis [1,-1,0]      

 cryst.   s( 9) = (     0         -1          0      )
                  (    -1          0          0      )
                  (     0          0         -1      )

 cart.    s( 9) = (  0.5000000 -0.8660254  0.0000000 )
                  ( -0.8660254 -0.5000000  0.0000000 )
                  (  0.0000000  0.0000000 -1.0000000 )


      isym = 10     180 deg rotation - cryst. axis [2,1,0]       

 cryst.   s(10) = (     1          1          0      )
                  (     0         -1          0      )
                  (     0          0         -1      )

 cart.    s(10) = (  0.5000000  0.8660254  0.0000000 )
                  (  0.8660254 -0.5000000  0.0000000 )
                  (  0.0000000  0.0000000 -1.0000000 )


      isym = 11     180 deg rotation - cryst. axis [0,1,0]       

 cryst.   s(11) = (    -1         -1          0      )
                  (     0          1          0      )
                  (     0          0         -1      )

 cart.    s(11) = ( -0.5000000 -0.8660254  0.0000000 )
                  ( -0.8660254  0.5000000  0.0000000 )
                  (  0.0000000  0.0000000 -1.0000000 )


      isym = 12     180 deg rotation - cryst. axis [1,1,0]       

 cryst.   s(12) = (     0          1          0      )
                  (     1          0          0      )
                  (     0          0         -1      )

 cart.    s(12) = ( -0.5000000  0.8660254  0.0000000 )
                  (  0.8660254  0.5000000  0.0000000 )
                  (  0.0000000  0.0000000 -1.0000000 )


      isym = 13     inversion                                    

 cryst.   s(13) = (    -1          0          0      )
                  (     0         -1          0      )
                  (     0          0         -1      )

 cart.    s(13) = ( -1.0000000  0.0000000  0.0000000 )
                  (  0.0000000 -1.0000000  0.0000000 )
                  (  0.0000000  0.0000000 -1.0000000 )


      isym = 14     inv. 180 deg rotation - cart. axis [0,0,1]   

 cryst.   s(14) = (     1          0          0      )
                  (     0          1          0      )
                  (     0          0         -1      )

 cart.    s(14) = (  1.0000000  0.0000000  0.0000000 )
                  (  0.0000000  1.0000000  0.0000000 )
                  (  0.0000000  0.0000000 -1.0000000 )


      isym = 15     inv. 180 deg rotation - cart. axis [0,1,0]   

 cryst.   s(15) = (     1          0          0      )
                  (    -1         -1          0      )
                  (     0          0          1      )

 cart.    s(15) = (  1.0000000  0.0000000  0.0000000 )
                  (  0.0000000 -1.0000000  0.0000000 )
                  (  0.0000000  0.0000000  1.0000000 )


      isym = 16     inv. 180 deg rotation - cart. axis [1,0,0]   

 cryst.   s(16) = (    -1          0          0      )
                  (     1          1          0      )
                  (     0          0          1      )

 cart.    s(16) = ( -1.0000000  0.0000000  0.0000000 )
                  (  0.0000000  1.0000000  0.0000000 )
                  (  0.0000000  0.0000000  1.0000000 )


      isym = 17     inv.  60 deg rotation - cryst. axis [0,0,1]  

 cryst.   s(17) = (    -1         -1          0      )
                  (     1          0          0      )
                  (     0          0         -1      )

 cart.    s(17) = ( -0.5000000  0.8660254  0.0000000 )
                  ( -0.8660254 -0.5000000  0.0000000 )
                  (  0.0000000  0.0000000 -1.0000000 )


      isym = 18     inv.  60 deg rotation - cryst. axis [0,0,-1] 

 cryst.   s(18) = (     0          1          0      )
                  (    -1         -1          0      )
                  (     0          0         -1      )

 cart.    s(18) = ( -0.5000000 -0.8660254  0.0000000 )
                  (  0.8660254 -0.5000000  0.0000000 )
                  (  0.0000000  0.0000000 -1.0000000 )


      isym = 19     inv. 120 deg rotation - cryst. axis [0,0,1]  

 cryst.   s(19) = (     0         -1          0      )
                  (     1          1          0      )
                  (     0          0         -1      )

 cart.    s(19) = (  0.5000000  0.8660254  0.0000000 )
                  ( -0.8660254  0.5000000  0.0000000 )
                  (  0.0000000  0.0000000 -1.0000000 )


      isym = 20     inv. 120 deg rotation - cryst. axis [0,0,-1] 

 cryst.   s(20) = (     1          1          0      )
                  (    -1          0          0      )
                  (     0          0         -1      )

 cart.    s(20) = (  0.5000000 -0.8660254  0.0000000 )
                  (  0.8660254  0.5000000  0.0000000 )
                  (  0.0000000  0.0000000 -1.0000000 )


      isym = 21     inv. 180 deg rotation - cryst. axis [1,-1,0] 

 cryst.   s(21) = (     0          1          0      )
                  (     1          0          0      )
                  (     0          0          1      )

 cart.    s(21) = ( -0.5000000  0.8660254  0.0000000 )
                  (  0.8660254  0.5000000  0.0000000 )
                  (  0.0000000  0.0000000  1.0000000 )


      isym = 22     inv. 180 deg rotation - cryst. axis [2,1,0]  

 cryst.   s(22) = (    -1         -1          0      )
                  (     0          1          0      )
                  (     0          0          1      )

 cart.    s(22) = ( -0.5000000 -0.8660254  0.0000000 )
                  ( -0.8660254  0.5000000  0.0000000 )
                  (  0.0000000  0.0000000  1.0000000 )


      isym = 23     inv. 180 deg rotation - cryst. axis [0,1,0]  

 cryst.   s(23) = (     1          1          0      )
                  (     0         -1          0      )
                  (     0          0          1      )

 cart.    s(23) = (  0.5000000  0.8660254  0.0000000 )
                  (  0.8660254 -0.5000000  0.0000000 )
                  (  0.0000000  0.0000000  1.0000000 )


      isym = 24     inv. 180 deg rotation - cryst. axis [1,1,0]  

 cryst.   s(24) = (     0         -1          0      )
                  (    -1          0          0      )
                  (     0          0          1      )

 cart.    s(24) = (  0.5000000 -0.8660254  0.0000000 )
                  ( -0.8660254 -0.5000000  0.0000000 )
                  (  0.0000000  0.0000000  1.0000000 )


   Cartesian axes

     site n.     atom                  positions (alat units)
         1           Mg  tau(   1) = (   0.0000000   0.0000000   0.0000000  )
         2           B   tau(   2) = (  -0.0000000   0.5773503   0.5749379  )
         3           B   tau(   3) = (   0.5000000   0.2886751   0.5749379  )

   Crystallographic axes

     site n.     atom                  positions (cryst. coord.)
         1           Mg  tau(   1) = (  0.0000000  0.0000000  0.0000000  )
         2           B   tau(   2) = (  0.3333333  0.6666667  0.5000000  )
         3           B   tau(   3) = (  0.6666667  0.3333333  0.5000000  )

     number of k points=   105  Methfessel-Paxton smearing, width (Ry)=  0.0010
                       cart. coord. in units 2pi/alat
        k(    1) = (   0.0000000   0.0000000   0.0000000), wk =   0.0006575
        k(    2) = (   0.0000000   0.0000000   0.0966288), wk =   0.0013149
        k(    3) = (   0.0000000   0.0000000   0.1932576), wk =   0.0013149
        k(    4) = (   0.0000000   0.0000000   0.2898864), wk =   0.0013149
        k(    5) = (   0.0000000   0.0000000   0.3865152), wk =   0.0013149
        k(    6) = (   0.0000000   0.0888231   0.0000000), wk =   0.0039448
        k(    7) = (   0.0000000   0.0888231   0.0966288), wk =   0.0078895
        k(    8) = (   0.0000000   0.0888231   0.1932576), wk =   0.0078895
        k(    9) = (   0.0000000   0.0888231   0.2898864), wk =   0.0078895
        k(   10) = (   0.0000000   0.0888231   0.3865152), wk =   0.0078895
        k(   11) = (   0.0000000   0.1776462   0.0000000), wk =   0.0039448
        k(   12) = (   0.0000000   0.1776462   0.0966288), wk =   0.0078895
        k(   13) = (   0.0000000   0.1776462   0.1932576), wk =   0.0078895
        k(   14) = (   0.0000000   0.1776462   0.2898864), wk =   0.0078895
        k(   15) = (   0.0000000   0.1776462   0.3865152), wk =   0.0078895
        k(   16) = (   0.0000000   0.2664694   0.0000000), wk =   0.0039448
        k(   17) = (   0.0000000   0.2664694   0.0966288), wk =   0.0078895
        k(   18) = (   0.0000000   0.2664694   0.1932576), wk =   0.0078895
        k(   19) = (   0.0000000   0.2664694   0.2898864), wk =   0.0078895
        k(   20) = (   0.0000000   0.2664694   0.3865152), wk =   0.0078895
        k(   21) = (   0.0000000   0.3552925   0.0000000), wk =   0.0039448
        k(   22) = (   0.0000000   0.3552925   0.0966288), wk =   0.0078895
        k(   23) = (   0.0000000   0.3552925   0.1932576), wk =   0.0078895
        k(   24) = (   0.0000000   0.3552925   0.2898864), wk =   0.0078895
        k(   25) = (   0.0000000   0.3552925   0.3865152), wk =   0.0078895
        k(   26) = (   0.0000000   0.4441156   0.0000000), wk =   0.0039448
        k(   27) = (   0.0000000   0.4441156   0.0966288), wk =   0.0078895
        k(   28) = (   0.0000000   0.4441156   0.1932576), wk =   0.0078895
        k(   29) = (   0.0000000   0.4441156   0.2898864), wk =   0.0078895
        k(   30) = (   0.0000000   0.4441156   0.3865152), wk =   0.0078895
        k(   31) = (   0.0000000   0.5329387   0.0000000), wk =   0.0039448
        k(   32) = (   0.0000000   0.5329387   0.0966288), wk =   0.0078895
        k(   33) = (   0.0000000   0.5329387   0.1932576), wk =   0.0078895
        k(   34) = (   0.0000000   0.5329387   0.2898864), wk =   0.0078895
        k(   35) = (   0.0000000   0.5329387   0.3865152), wk =   0.0078895
        k(   36) = (   0.0769231   0.1332347   0.0000000), wk =   0.0039448
        k(   37) = (   0.0769231   0.1332347   0.0966288), wk =   0.0078895
        k(   38) = (   0.0769231   0.1332347   0.1932576), wk =   0.0078895
        k(   39) = (   0.0769231   0.1332347   0.2898864), wk =   0.0078895
        k(   40) = (   0.0769231   0.1332347   0.3865152), wk =   0.0078895
        k(   41) = (   0.0769231   0.2220578   0.0000000), wk =   0.0078895
        k(   42) = (   0.0769231   0.2220578   0.0966288), wk =   0.0157791
        k(   43) = (   0.0769231   0.2220578   0.1932576), wk =   0.0157791
        k(   44) = (   0.0769231   0.2220578   0.2898864), wk =   0.0157791
        k(   45) = (   0.0769231   0.2220578   0.3865152), wk =   0.0157791
        k(   46) = (   0.0769231   0.3108809   0.0000000), wk =   0.0078895
        k(   47) = (   0.0769231   0.3108809   0.0966288), wk =   0.0157791
        k(   48) = (   0.0769231   0.3108809   0.1932576), wk =   0.0157791
        k(   49) = (   0.0769231   0.3108809   0.2898864), wk =   0.0157791
        k(   50) = (   0.0769231   0.3108809   0.3865152), wk =   0.0157791
        k(   51) = (   0.0769231   0.3997040   0.0000000), wk =   0.0078895
        k(   52) = (   0.0769231   0.3997040   0.0966288), wk =   0.0157791
        k(   53) = (   0.0769231   0.3997040   0.1932576), wk =   0.0157791
        k(   54) = (   0.0769231   0.3997040   0.2898864), wk =   0.0157791
        k(   55) = (   0.0769231   0.3997040   0.3865152), wk =   0.0157791
        k(   56) = (   0.0769231   0.4885272   0.0000000), wk =   0.0078895
        k(   57) = (   0.0769231   0.4885272   0.0966288), wk =   0.0157791
        k(   58) = (   0.0769231   0.4885272   0.1932576), wk =   0.0157791
        k(   59) = (   0.0769231   0.4885272   0.2898864), wk =   0.0157791
        k(   60) = (   0.0769231   0.4885272   0.3865152), wk =   0.0157791
        k(   61) = (   0.0769231   0.5773503   0.0000000), wk =   0.0039448
        k(   62) = (   0.0769231   0.5773503   0.0966288), wk =   0.0078895
        k(   63) = (   0.0769231   0.5773503   0.1932576), wk =   0.0078895
        k(   64) = (   0.0769231   0.5773503   0.2898864), wk =   0.0078895
        k(   65) = (   0.0769231   0.5773503   0.3865152), wk =   0.0078895
        k(   66) = (   0.1538462   0.2664694   0.0000000), wk =   0.0039448
        k(   67) = (   0.1538462   0.2664694   0.0966288), wk =   0.0078895
        k(   68) = (   0.1538462   0.2664694   0.1932576), wk =   0.0078895
        k(   69) = (   0.1538462   0.2664694   0.2898864), wk =   0.0078895
        k(   70) = (   0.1538462   0.2664694   0.3865152), wk =   0.0078895
        k(   71) = (   0.1538462   0.3552925   0.0000000), wk =   0.0078895
        k(   72) = (   0.1538462   0.3552925   0.0966288), wk =   0.0157791
        k(   73) = (   0.1538462   0.3552925   0.1932576), wk =   0.0157791
        k(   74) = (   0.1538462   0.3552925   0.2898864), wk =   0.0157791
        k(   75) = (   0.1538462   0.3552925   0.3865152), wk =   0.0157791
        k(   76) = (   0.1538462   0.4441156   0.0000000), wk =   0.0078895
        k(   77) = (   0.1538462   0.4441156   0.0966288), wk =   0.0157791
        k(   78) = (   0.1538462   0.4441156   0.1932576), wk =   0.0157791
        k(   79) = (   0.1538462   0.4441156   0.2898864), wk =   0.0157791
        k(   80) = (   0.1538462   0.4441156   0.3865152), wk =   0.0157791
        k(   81) = (   0.1538462   0.5329387   0.0000000), wk =   0.0078895
        k(   82) = (   0.1538462   0.5329387   0.0966288), wk =   0.0157791
        k(   83) = (   0.1538462   0.5329387   0.1932576), wk =   0.0157791
        k(   84) = (   0.1538462   0.5329387   0.2898864), wk =   0.0157791
        k(   85) = (   0.1538462   0.5329387   0.3865152), wk =   0.0157791
        k(   86) = (   0.2307692   0.3997040   0.0000000), wk =   0.0039448
        k(   87) = (   0.2307692   0.3997040   0.0966288), wk =   0.0078895
        k(   88) = (   0.2307692   0.3997040   0.1932576), wk =   0.0078895
        k(   89) = (   0.2307692   0.3997040   0.2898864), wk =   0.0078895
        k(   90) = (   0.2307692   0.3997040   0.3865152), wk =   0.0078895
        k(   91) = (   0.2307692   0.4885272   0.0000000), wk =   0.0078895
        k(   92) = (   0.2307692   0.4885272   0.0966288), wk =   0.0157791
        k(   93) = (   0.2307692   0.4885272   0.1932576), wk =   0.0157791
        k(   94) = (   0.2307692   0.4885272   0.2898864), wk =   0.0157791
        k(   95) = (   0.2307692   0.4885272   0.3865152), wk =   0.0157791
        k(   96) = (   0.2307692   0.5773503   0.0000000), wk =   0.0039448
        k(   97) = (   0.2307692   0.5773503   0.0966288), wk =   0.0078895
        k(   98) = (   0.2307692   0.5773503   0.1932576), wk =   0.0078895
        k(   99) = (   0.2307692   0.5773503   0.2898864), wk =   0.0078895
        k(  100) = (   0.2307692   0.5773503   0.3865152), wk =   0.0078895
        k(  101) = (   0.3076923   0.5329387   0.0000000), wk =   0.0039448
        k(  102) = (   0.3076923   0.5329387   0.0966288), wk =   0.0078895
        k(  103) = (   0.3076923   0.5329387   0.1932576), wk =   0.0078895
        k(  104) = (   0.3076923   0.5329387   0.2898864), wk =   0.0078895
        k(  105) = (   0.3076923   0.5329387   0.3865152), wk =   0.0078895

                       cryst. coord.
        k(    1) = (   0.0000000   0.0000000   0.0000000), wk =   0.0006575
        k(    2) = (   0.0000000   0.0000000   0.1111111), wk =   0.0013149
        k(    3) = (   0.0000000   0.0000000   0.2222222), wk =   0.0013149
        k(    4) = (   0.0000000   0.0000000   0.3333333), wk =   0.0013149
        k(    5) = (   0.0000000   0.0000000   0.4444444), wk =   0.0013149
        k(    6) = (   0.0000000   0.0769231   0.0000000), wk =   0.0039448
        k(    7) = (   0.0000000   0.0769231   0.1111111), wk =   0.0078895
        k(    8) = (   0.0000000   0.0769231   0.2222222), wk =   0.0078895
        k(    9) = (   0.0000000   0.0769231   0.3333333), wk =   0.0078895
        k(   10) = (   0.0000000   0.0769231   0.4444444), wk =   0.0078895
        k(   11) = (   0.0000000   0.1538462   0.0000000), wk =   0.0039448
        k(   12) = (   0.0000000   0.1538462   0.1111111), wk =   0.0078895
        k(   13) = (   0.0000000   0.1538462   0.2222222), wk =   0.0078895
        k(   14) = (   0.0000000   0.1538462   0.3333333), wk =   0.0078895
        k(   15) = (   0.0000000   0.1538462   0.4444444), wk =   0.0078895
        k(   16) = (   0.0000000   0.2307692   0.0000000), wk =   0.0039448
        k(   17) = (   0.0000000   0.2307692   0.1111111), wk =   0.0078895
        k(   18) = (   0.0000000   0.2307692   0.2222222), wk =   0.0078895
        k(   19) = (   0.0000000   0.2307692   0.3333333), wk =   0.0078895
        k(   20) = (   0.0000000   0.2307692   0.4444444), wk =   0.0078895
        k(   21) = (   0.0000000   0.3076923   0.0000000), wk =   0.0039448
        k(   22) = (   0.0000000   0.3076923   0.1111111), wk =   0.0078895
        k(   23) = (   0.0000000   0.3076923   0.2222222), wk =   0.0078895
        k(   24) = (   0.0000000   0.3076923   0.3333333), wk =   0.0078895
        k(   25) = (   0.0000000   0.3076923   0.4444444), wk =   0.0078895
        k(   26) = (   0.0000000   0.3846154   0.0000000), wk =   0.0039448
        k(   27) = (   0.0000000   0.3846154   0.1111111), wk =   0.0078895
        k(   28) = (   0.0000000   0.3846154   0.2222222), wk =   0.0078895
        k(   29) = (   0.0000000   0.3846154   0.3333333), wk =   0.0078895
        k(   30) = (   0.0000000   0.3846154   0.4444444), wk =   0.0078895
        k(   31) = (   0.0000000   0.4615385   0.0000000), wk =   0.0039448
        k(   32) = (   0.0000000   0.4615385   0.1111111), wk =   0.0078895
        k(   33) = (   0.0000000   0.4615385   0.2222222), wk =   0.0078895
        k(   34) = (   0.0000000   0.4615385   0.3333333), wk =   0.0078895
        k(   35) = (   0.0000000   0.4615385   0.4444444), wk =   0.0078895
        k(   36) = (   0.0769231   0.0769231   0.0000000), wk =   0.0039448
        k(   37) = (   0.0769231   0.0769231   0.1111111), wk =   0.0078895
        k(   38) = (   0.0769231   0.0769231   0.2222222), wk =   0.0078895
        k(   39) = (   0.0769231   0.0769231   0.3333333), wk =   0.0078895
        k(   40) = (   0.0769231   0.0769231   0.4444444), wk =   0.0078895
        k(   41) = (   0.0769231   0.1538462   0.0000000), wk =   0.0078895
        k(   42) = (   0.0769231   0.1538462   0.1111111), wk =   0.0157791
        k(   43) = (   0.0769231   0.1538462   0.2222222), wk =   0.0157791
        k(   44) = (   0.0769231   0.1538462   0.3333333), wk =   0.0157791
        k(   45) = (   0.0769231   0.1538462   0.4444444), wk =   0.0157791
        k(   46) = (   0.0769231   0.2307692   0.0000000), wk =   0.0078895
        k(   47) = (   0.0769231   0.2307692   0.1111111), wk =   0.0157791
        k(   48) = (   0.0769231   0.2307692   0.2222222), wk =   0.0157791
        k(   49) = (   0.0769231   0.2307692   0.3333333), wk =   0.0157791
        k(   50) = (   0.0769231   0.2307692   0.4444444), wk =   0.0157791
        k(   51) = (   0.0769231   0.3076923   0.0000000), wk =   0.0078895
        k(   52) = (   0.0769231   0.3076923   0.1111111), wk =   0.0157791
        k(   53) = (   0.0769231   0.3076923   0.2222222), wk =   0.0157791
        k(   54) = (   0.0769231   0.3076923   0.3333333), wk =   0.0157791
        k(   55) = (   0.0769231   0.3076923   0.4444444), wk =   0.0157791
        k(   56) = (   0.0769231   0.3846154   0.0000000), wk =   0.0078895
        k(   57) = (   0.0769231   0.3846154   0.1111111), wk =   0.0157791
        k(   58) = (   0.0769231   0.3846154   0.2222222), wk =   0.0157791
        k(   59) = (   0.0769231   0.3846154   0.3333333), wk =   0.0157791
        k(   60) = (   0.0769231   0.3846154   0.4444444), wk =   0.0157791
        k(   61) = (   0.0769231   0.4615385   0.0000000), wk =   0.0039448
        k(   62) = (   0.0769231   0.4615385   0.1111111), wk =   0.0078895
        k(   63) = (   0.0769231   0.4615385   0.2222222), wk =   0.0078895
        k(   64) = (   0.0769231   0.4615385   0.3333333), wk =   0.0078895
        k(   65) = (   0.0769231   0.4615385   0.4444444), wk =   0.0078895
        k(   66) = (   0.1538462   0.1538462   0.0000000), wk =   0.0039448
        k(   67) = (   0.1538462   0.1538462   0.1111111), wk =   0.0078895
        k(   68) = (   0.1538462   0.1538462   0.2222222), wk =   0.0078895
        k(   69) = (   0.1538462   0.1538462   0.3333333), wk =   0.0078895
        k(   70) = (   0.1538462   0.1538462   0.4444444), wk =   0.0078895
        k(   71) = (   0.1538462   0.2307692   0.0000000), wk =   0.0078895
        k(   72) = (   0.1538462   0.2307692   0.1111111), wk =   0.0157791
        k(   73) = (   0.1538462   0.2307692   0.2222222), wk =   0.0157791
        k(   74) = (   0.1538462   0.2307692   0.3333333), wk =   0.0157791
        k(   75) = (   0.1538462   0.2307692   0.4444444), wk =   0.0157791
        k(   76) = (   0.1538462   0.3076923   0.0000000), wk =   0.0078895
        k(   77) = (   0.1538462   0.3076923   0.1111111), wk =   0.0157791
        k(   78) = (   0.1538462   0.3076923   0.2222222), wk =   0.0157791
        k(   79) = (   0.1538462   0.3076923   0.3333333), wk =   0.0157791
        k(   80) = (   0.1538462   0.3076923   0.4444444), wk =   0.0157791
        k(   81) = (   0.1538462   0.3846154   0.0000000), wk =   0.0078895
        k(   82) = (   0.1538462   0.3846154   0.1111111), wk =   0.0157791
        k(   83) = (   0.1538462   0.3846154   0.2222222), wk =   0.0157791
        k(   84) = (   0.1538462   0.3846154   0.3333333), wk =   0.0157791
        k(   85) = (   0.1538462   0.3846154   0.4444444), wk =   0.0157791
        k(   86) = (   0.2307692   0.2307692   0.0000000), wk =   0.0039448
        k(   87) = (   0.2307692   0.2307692   0.1111111), wk =   0.0078895
        k(   88) = (   0.2307692   0.2307692   0.2222222), wk =   0.0078895
        k(   89) = (   0.2307692   0.2307692   0.3333333), wk =   0.0078895
        k(   90) = (   0.2307692   0.2307692   0.4444444), wk =   0.0078895
        k(   91) = (   0.2307692   0.3076923   0.0000000), wk =   0.0078895
        k(   92) = (   0.2307692   0.3076923   0.1111111), wk =   0.0157791
        k(   93) = (   0.2307692   0.3076923   0.2222222), wk =   0.0157791
        k(   94) = (   0.2307692   0.3076923   0.3333333), wk =   0.0157791
        k(   95) = (   0.2307692   0.3076923   0.4444444), wk =   0.0157791
        k(   96) = (   0.2307692   0.3846154   0.0000000), wk =   0.0039448
        k(   97) = (   0.2307692   0.3846154   0.1111111), wk =   0.0078895
        k(   98) = (   0.2307692   0.3846154   0.2222222), wk =   0.0078895
        k(   99) = (   0.2307692   0.3846154   0.3333333), wk =   0.0078895
        k(  100) = (   0.2307692   0.3846154   0.4444444), wk =   0.0078895
        k(  101) = (   0.3076923   0.3076923   0.0000000), wk =   0.0039448
        k(  102) = (   0.3076923   0.3076923   0.1111111), wk =   0.0078895
        k(  103) = (   0.3076923   0.3076923   0.2222222), wk =   0.0078895
        k(  104) = (   0.3076923   0.3076923   0.3333333), wk =   0.0078895
        k(  105) = (   0.3076923   0.3076923   0.4444444), wk =   0.0078895

     Dense  grid:    20259 G-vectors     FFT dimensions: (  36,  36,  40)

     Dynamical RAM for                 wfc:       0.12 MB

     Dynamical RAM for     wfc (w. buffer):       2.21 MB

     Dynamical RAM for           str. fact:       0.15 MB

     Dynamical RAM for           local pot:       0.00 MB

     Dynamical RAM for          nlocal pot:       0.23 MB

     Dynamical RAM for                qrad:       0.78 MB

     Dynamical RAM for          rho,v,vnew:       1.06 MB

     Dynamical RAM for               rhoin:       0.35 MB

     Dynamical RAM for            rho*nmix:       2.47 MB

     Dynamical RAM for           G-vectors:       0.33 MB

     Dynamical RAM for          h,s,v(r/c):       0.11 MB

     Dynamical RAM for          <psi|beta>:       0.00 MB

     Dynamical RAM for                 psi:       0.46 MB

     Dynamical RAM for                hpsi:       0.46 MB

     Dynamical RAM for      wfcinit/wfcrot:       0.26 MB

     Estimated static dynamical RAM per process >       8.41 MB

     Estimated max dynamical RAM per process >       9.45 MB

     Estimated total dynamical RAM >     453.36 MB
     Generating pointlists ...
     new r_m :   0.2382 (alat units)  1.3833 (a.u.) for type    1
     new r_m :   0.3361 (alat units)  1.9522 (a.u.) for type    2

     Initial potential from superposition of free atoms

     starting charge   15.99871, renormalised to   16.00000
     Starting wfcs are   13 randomized atomic wfcs

     total cpu time spent up to now is        1.3 secs

     Self-consistent Calculation

     iteration #  1     ecut=    84.00 Ry     beta= 0.40
     Davidson diagonalization with overlap
     ethr =  1.00E-02,  avg # of iterations =  3.8

     total cpu time spent up to now is        1.5 secs

     total energy              =    -130.35385775 Ry
     Harris-Foulkes estimate   =    -130.50880283 Ry
     estimated scf accuracy    <       0.31586384 Ry

     total magnetization       =     0.00 Bohr mag/cell
     absolute magnetization    =     0.00 Bohr mag/cell

     iteration #  2     ecut=    84.00 Ry     beta= 0.40
     Davidson diagonalization with overlap
     ethr =  1.97E-03,  avg # of iterations =  2.1

     total cpu time spent up to now is        1.8 secs

     total energy              =    -130.38308475 Ry
     Harris-Foulkes estimate   =    -130.39067808 Ry
     estimated scf accuracy    <       0.01605916 Ry

     total magnetization       =     0.00 Bohr mag/cell
     absolute magnetization    =     0.00 Bohr mag/cell

     iteration #  3     ecut=    84.00 Ry     beta= 0.40
     Davidson diagonalization with overlap
     ethr =  1.00E-04,  avg # of iterations =  3.5

     total cpu time spent up to now is        2.0 secs

     total energy              =    -130.38632365 Ry
     Harris-Foulkes estimate   =    -130.38643423 Ry
     estimated scf accuracy    <       0.00102390 Ry

     total magnetization       =     0.00 Bohr mag/cell
     absolute magnetization    =     0.00 Bohr mag/cell

     iteration #  4     ecut=    84.00 Ry     beta= 0.40
     Davidson diagonalization with overlap
     ethr =  6.40E-06,  avg # of iterations =  2.0

     total cpu time spent up to now is        2.1 secs

     total energy              =    -130.38636770 Ry
     Harris-Foulkes estimate   =    -130.38637894 Ry
     estimated scf accuracy    <       0.00002931 Ry

     total magnetization       =    -0.00 Bohr mag/cell
     absolute magnetization    =     0.00 Bohr mag/cell

     iteration #  5     ecut=    84.00 Ry     beta= 0.40
     Davidson diagonalization with overlap
     ethr =  1.83E-07,  avg # of iterations =  2.2

     total cpu time spent up to now is        2.3 secs

     total energy              =    -130.38637271 Ry
     Harris-Foulkes estimate   =    -130.38637304 Ry
     estimated scf accuracy    <       0.00000187 Ry

     total magnetization       =    -0.00 Bohr mag/cell
     absolute magnetization    =     0.00 Bohr mag/cell

     iteration #  6     ecut=    84.00 Ry     beta= 0.40
     Davidson diagonalization with overlap
     ethr =  1.17E-08,  avg # of iterations =  2.0

     total cpu time spent up to now is        2.4 secs

     total energy              =    -130.38637294 Ry
     Harris-Foulkes estimate   =    -130.38637315 Ry
     estimated scf accuracy    <       0.00000033 Ry

     total magnetization       =    -0.00 Bohr mag/cell
     absolute magnetization    =     0.00 Bohr mag/cell

     iteration #  7     ecut=    84.00 Ry     beta= 0.40
     Davidson diagonalization with overlap
     ethr =  2.08E-09,  avg # of iterations =  2.0

     total cpu time spent up to now is        2.6 secs

     total energy              =    -130.38637283 Ry
     Harris-Foulkes estimate   =    -130.38637284 Ry
     estimated scf accuracy    <          9.0E-09 Ry

     total magnetization       =    -0.00 Bohr mag/cell
     absolute magnetization    =     0.00 Bohr mag/cell

     iteration #  8     ecut=    84.00 Ry     beta= 0.40
     Davidson diagonalization with overlap
     ethr =  5.61E-11,  avg # of iterations =  2.1

     total cpu time spent up to now is        2.7 secs

     total energy              =    -130.38637284 Ry
     Harris-Foulkes estimate   =    -130.38637284 Ry
     estimated scf accuracy    <          6.4E-10 Ry

     total magnetization       =    -0.00 Bohr mag/cell
     absolute magnetization    =     0.00 Bohr mag/cell

     iteration #  9     ecut=    84.00 Ry     beta= 0.40
     Davidson diagonalization with overlap
     ethr =  3.98E-12,  avg # of iterations =  2.0

     total cpu time spent up to now is        2.9 secs

     total energy              =    -130.38637284 Ry
     Harris-Foulkes estimate   =    -130.38637284 Ry
     estimated scf accuracy    <          7.5E-11 Ry

     total magnetization       =    -0.00 Bohr mag/cell
     absolute magnetization    =     0.00 Bohr mag/cell

     iteration # 10     ecut=    84.00 Ry     beta= 0.40
     Davidson diagonalization with overlap
     ethr =  4.68E-13,  avg # of iterations =  2.0

     total cpu time spent up to now is        3.0 secs

     total energy              =    -130.38637284 Ry
     Harris-Foulkes estimate   =    -130.38637284 Ry
     estimated scf accuracy    <          2.0E-12 Ry

     total magnetization       =    -0.00 Bohr mag/cell
     absolute magnetization    =     0.00 Bohr mag/cell

     iteration # 11     ecut=    84.00 Ry     beta= 0.40
     Davidson diagonalization with overlap
     ethr =  1.00E-13,  avg # of iterations =  1.0
 
     Magnetic moment per site:
     atom:    1    charge:    8.5408    magn:    0.0000    constr:    0.0000
     atom:    2    charge:    1.3731    magn:   -0.0000    constr:    0.0000
     atom:    3    charge:    1.3731    magn:   -0.0000    constr:    0.0000

     total cpu time spent up to now is        3.2 secs

     End of self-consistent calculation

 ------ SPIN UP ------------


          k = 0.0000 0.0000 0.0000 (  2545 PWs)   bands (ev):

   -65.6961 -32.6661 -32.6661 -32.6470  -3.2664   6.1534   9.5958   9.5958
    10.7026  15.5506  15.5506  17.4362

     occupation numbers 
     1.0000   1.0000   1.0000   1.0000   1.0000   1.0000  -0.0000  -0.0000
    -0.0000  -0.0000  -0.0000  -0.0000

          k = 0.0000 0.0000 0.0966 (  2557 PWs)   bands (ev):

   -65.6961 -32.6660 -32.6660 -32.6478  -3.1602   5.3587   9.6355   9.6355
    11.7457  15.5872  15.5872  17.4081

     occupation numbers 
     1.0000   1.0000   1.0000   1.0000   1.0000   1.0000  -0.0000  -0.0000
    -0.0000  -0.0000  -0.0000  -0.0000

          k = 0.0000 0.0000 0.1933 (  2557 PWs)   bands (ev):

   -65.6960 -32.6659 -32.6659 -32.6500  -2.8576   3.9339   9.7392   9.7392
    13.9101  15.6840  15.6840  17.3385

     occupation numbers 
     1.0000   1.0000   1.0000   1.0000   1.0000   1.0000  -0.0000  -0.0000
    -0.0000  -0.0000  -0.0000  -0.0000

          k = 0.0000 0.0000 0.2899 (  2570 PWs)   bands (ev):

   -65.6960 -32.6657 -32.6657 -32.6525  -2.4241   2.6333   9.8633   9.8633
    15.8020  15.8020  16.4011  17.2621

     occupation numbers 
     1.0000   1.0000   1.0000   1.0000   1.0000   1.0000  -0.0000  -0.0000
    -0.0000  -0.0000  -0.0000  -0.0000

          k = 0.0000 0.0000 0.3865 (  2570 PWs)   bands (ev):

   -65.6959 -32.6656 -32.6656 -32.6541  -2.0454   1.8018   9.9482   9.9482
    15.8843  15.8843  17.2137  18.5743

     occupation numbers 
     1.0000   1.0000   1.0000   1.0000   1.0000   1.0000  -0.0000  -0.0000
    -0.0000  -0.0000  -0.0000  -0.0000

          k = 0.0000 0.0888 0.0000 (  2555 PWs)   bands (ev):

   -65.6959 -32.6685 -32.6667 -32.6466  -3.1624   6.2548   9.0657   9.3459
    10.7954  15.4801  16.0101  17.6546

     occupation numbers 
     1.0000   1.0000   1.0000   1.0000   1.0000   1.0000   1.0000  -0.0000
    -0.0000  -0.0000  -0.0000  -0.0000

          k = 0.0000 0.0888 0.0966 (  2558 PWs)   bands (ev):

   -65.6959 -32.6684 -32.6666 -32.6475  -3.0568   5.4626   9.1107   9.3846
    11.8312  15.5300  16.0480  17.4766

     occupation numbers 
     1.0000   1.0000   1.0000   1.0000   1.0000   1.0000   0.9680  -0.0000
    -0.0000  -0.0000  -0.0000  -0.0000

          k = 0.0000 0.0888 0.1933 (  2551 PWs)   bands (ev):

   -65.6958 -32.6682 -32.6665 -32.6496  -2.7561   4.0422   9.2272   9.4856
    13.9667  15.6762  16.1481  17.0884

     occupation numbers 
     1.0000   1.0000   1.0000   1.0000   1.0000   1.0000  -0.0000  -0.0000
    -0.0000  -0.0000  -0.0000  -0.0000

          k = 0.0000 0.0888 0.2899 (  2546 PWs)   bands (ev):

   -65.6958 -32.6681 -32.6663 -32.6521  -2.3259   2.7467   9.3681   9.6064
    15.7006  16.2702  16.5773  16.6907

     occupation numbers 
     1.0000   1.0000   1.0000   1.0000   1.0000   1.0000  -0.0000  -0.0000
    -0.0000  -0.0000  -0.0000  -0.0000

          k = 0.0000 0.0888 0.3865 (  2559 PWs)   bands (ev):

   -65.6957 -32.6679 -32.6662 -32.6537  -1.9511   1.9199   9.4659   9.6890
    15.8775  16.3555  16.4335  18.6721

     occupation numbers 
     1.0000   1.0000   1.0000   1.0000   1.0000   1.0000  -0.0000  -0.0000
    -0.0000  -0.0000  -0.0000  -0.0000

          k = 0.0000 0.1776 0.0000 (  2551 PWs)   bands (ev):

   -65.6954 -32.6750 -32.6683 -32.6457  -2.8517   6.5574   7.7912   8.7767
    11.0822  15.1477  17.2001  17.8009

     occupation numbers 
     1.0000   1.0000   1.0000   1.0000   1.0000   1.0000   1.0000   1.0000
    -0.0000  -0.0000  -0.0000  -0.0000

          k = 0.0000 0.1776 0.0966 (  2540 PWs)   bands (ev):

   -65.6953 -32.6750 -32.6682 -32.6465  -2.7478   5.7721   7.8477   8.8133
    12.0966  15.2185  17.0370  17.2405

     occupation numbers 
     1.0000   1.0000   1.0000   1.0000   1.0000   1.0000   1.0000   1.0000
    -0.0000  -0.0000  -0.0000  -0.0000

          k = 0.0000 0.1776 0.1933 (  2539 PWs)   bands (ev):

   -65.6953 -32.6748 -32.6680 -32.6486  -2.4525   4.3651   7.9899   8.9090
    14.1328  15.4454  16.1512  17.3478

     occupation numbers 
     1.0000   1.0000   1.0000   1.0000   1.0000   1.0000   1.0000   1.0000
    -0.0000  -0.0000  -0.0000  -0.0000

          k = 0.0000 0.1776 0.2899 (  2555 PWs)   bands (ev):

   -65.6952 -32.6746 -32.6679 -32.6510  -2.0319   3.0846   8.1648   9.0232
    15.1112  15.6103  16.9148  17.4797

     occupation numbers 
     1.0000   1.0000   1.0000   1.0000   1.0000   1.0000   1.0000   1.0000
    -0.0000  -0.0000  -0.0000  -0.0000

          k = 0.0000 0.1776 0.3865 (  2553 PWs)   bands (ev):

   -65.6951 -32.6745 -32.6677 -32.6526  -1.6685   2.2718   8.2896   9.1013
    14.7824  15.7524  17.5730  18.9284

     occupation numbers 
     1.0000   1.0000   1.0000   1.0000   1.0000   1.0000   1.0000   1.0311
    -0.0000  -0.0000  -0.0000  -0.0000

          k = 0.0000 0.2665 0.0000 (  2531 PWs)   bands (ev):

   -65.6946 -32.6843 -32.6705 -32.6443  -2.3376   6.2297   7.0544   8.1532
    11.5467  14.6907  16.4006  18.8238

     occupation numbers 
     1.0000   1.0000   1.0000   1.0000   1.0000   1.0000   1.0000   1.0000
    -0.0000  -0.0000  -0.0000  -0.0000

          k = 0.0000 0.2665 0.0966 (  2532 PWs)   bands (ev):

   -65.6945 -32.6842 -32.6704 -32.6451  -2.2366   6.2100   6.3678   8.1879
    12.5162  14.7538  15.7639  18.8665

     occupation numbers 
     1.0000   1.0000   1.0000   1.0000   1.0000   1.0000   1.0000   1.0000
    -0.0000  -0.0000  -0.0000  -0.0000

          k = 0.0000 0.2665 0.1933 (  2538 PWs)   bands (ev):

   -65.6945 -32.6840 -32.6703 -32.6472  -1.9500   4.8935   6.4664   8.2784
    14.0290  14.7253  15.4919  18.9769

     occupation numbers 
     1.0000   1.0000   1.0000   1.0000   1.0000   1.0000   1.0000   1.0000
    -0.0000  -0.0000  -0.0000  -0.0000

          k = 0.0000 0.2665 0.2899 (  2553 PWs)   bands (ev):

   -65.6944 -32.6838 -32.6701 -32.6496  -1.5447   3.6394   6.6737   8.3864
    13.4430  15.2241  17.3480  19.1125

     occupation numbers 
     1.0000   1.0000   1.0000   1.0000   1.0000   1.0000   1.0000   1.0000
    -0.0000  -0.0000  -0.0000  -0.0000

          k = 0.0000 0.2665 0.3865 (  2555 PWs)   bands (ev):

   -65.6943 -32.6836 -32.6700 -32.6511  -1.1990   2.8490   6.8264   8.4601
    12.9387  15.4887  19.1520  19.2168

     occupation numbers 
     1.0000   1.0000   1.0000   1.0000   1.0000   1.0000   1.0000   1.0000
    -0.0000  -0.0000  -0.0000  -0.0000

          k = 0.0000 0.3553 0.0000 (  2531 PWs)   bands (ev):

   -65.6937 -32.6941 -32.6729 -32.6428  -1.6264   4.6270   7.6209   7.7275
    12.1426  14.3052  14.8689  18.0590

     occupation numbers 
     1.0000   1.0000   1.0000   1.0000   1.0000   1.0000   1.0000   1.0000
    -0.0000  -0.0000  -0.0000  -0.0000

          k = 0.0000 0.3553 0.0966 (  2536 PWs)   bands (ev):

   -65.6937 -32.6940 -32.6728 -32.6436  -1.5291   4.6942   6.9819   7.6540
    12.9412  14.0619  14.7018  18.8189

     occupation numbers 
     1.0000   1.0000   1.0000   1.0000   1.0000   1.0000   1.0000   1.0000
    -0.0000  -0.0000  -0.0000  -0.0000

          k = 0.0000 0.3553 0.1933 (  2549 PWs)   bands (ev):

   -65.6936 -32.6938 -32.6726 -32.6457  -1.2542   4.8711   5.6409   7.7405
    12.6701  14.4201  15.7477  19.9309

     occupation numbers 
     1.0000   1.0000   1.0000   1.0000   1.0000   1.0000   1.0000   1.0000
    -0.0000  -0.0000  -0.0000  -0.0000

          k = 0.0000 0.3553 0.2899 (  2540 PWs)   bands (ev):

   -65.6935 -32.6935 -32.6724 -32.6480  -0.8691   4.3881   5.1418   7.8436
    11.7030  14.8981  17.8897  19.3065

     occupation numbers 
     1.0000   1.0000   1.0000   1.0000   1.0000   1.0000   1.0000   1.0000
    -0.0000  -0.0000  -0.0000  -0.0000

          k = 0.0000 0.3553 0.3865 (  2542 PWs)   bands (ev):

   -65.6935 -32.6933 -32.6723 -32.6495  -0.5458   3.6336   5.3142   7.9138
    11.1244  15.2152  18.7697  18.8001

     occupation numbers 
     1.0000   1.0000   1.0000   1.0000   1.0000   1.0000   1.0000   1.0000
    -0.0000  -0.0000  -0.0000  -0.0000

          k = 0.0000 0.4441 0.0000 (  2528 PWs)   bands (ev):

   -65.6930 -32.7022 -32.6749 -32.6416  -0.7289   3.0989   7.2438   8.5219
    12.7420  13.4286  14.1400  17.1687

     occupation numbers 
     1.0000   1.0000   1.0000   1.0000   1.0000   1.0000   1.0000   1.0000
    -0.0000  -0.0000  -0.0000  -0.0000

          k = 0.0000 0.4441 0.0966 (  2535 PWs)   bands (ev):

   -65.6930 -32.7021 -32.6748 -32.6424  -0.6363   3.1743   7.2760   7.8076
    12.3972  13.6059  14.6827  17.9842

     occupation numbers 
     1.0000   1.0000   1.0000   1.0000   1.0000   1.0000   1.0000   1.0000
    -0.0000  -0.0000  -0.0000  -0.0000

          k = 0.0000 0.4441 0.1933 (  2527 PWs)   bands (ev):

   -65.6929 -32.7018 -32.6746 -32.6444  -0.3757   3.3814   6.5024   7.3597
    11.1722  14.1907  16.3913  19.2924

     occupation numbers 
     1.0000   1.0000   1.0000   1.0000   1.0000   1.0000   1.0000   1.0000
    -0.0000  -0.0000  -0.0000  -0.0000

          k = 0.0000 0.4441 0.2899 (  2528 PWs)   bands (ev):

   -65.6928 -32.7015 -32.6744 -32.6467  -0.0142   3.6547   5.3193   7.4594
    10.0948  14.6517  18.4056  18.9254

     occupation numbers 
     1.0000   1.0000   1.0000   1.0000   1.0000   1.0000   1.0000   1.0000
    -0.0000  -0.0000  -0.0000  -0.0000

          k = 0.0000 0.4441 0.3865 (  2532 PWs)   bands (ev):

   -65.6928 -32.7014 -32.6743 -32.6482   0.2842   3.8674   4.5840   7.5273
     9.4644  15.0062  18.3393  18.3823

     occupation numbers 
     1.0000   1.0000   1.0000   1.0000   1.0000   1.0000   1.0000   1.0000
    -0.0000  -0.0000  -0.0000  -0.0000

          k = 0.0000 0.5329 0.0000 (  2536 PWs)   bands (ev):

   -65.6926 -32.7067 -32.6760 -32.6410   0.3114   1.7345   7.0500   9.2270
    12.3816  13.0668  14.3178  16.3664

     occupation numbers 
     1.0000   1.0000   1.0000   1.0000   1.0000   1.0000   1.0000  -0.0000
    -0.0000  -0.0000  -0.0000  -0.0000

          k = 0.0000 0.5329 0.0966 (  2530 PWs)   bands (ev):

   -65.6926 -32.7066 -32.6759 -32.6417   0.3984   1.8169   7.0816   8.5667
    11.3883  13.5805  15.1605  17.1715

     occupation numbers 
     1.0000   1.0000   1.0000   1.0000   1.0000   1.0000   1.0000   1.0000
    -0.0000  -0.0000  -0.0000  -0.0000

          k = 0.0000 0.5329 0.1933 (  2524 PWs)   bands (ev):

   -65.6925 -32.7064 -32.6757 -32.6437   0.6424   2.0442   7.1639   7.3289
    10.0103  14.0563  17.0774  18.6245

     occupation numbers 
     1.0000   1.0000   1.0000   1.0000   1.0000   1.0000   1.0000   1.0000
    -0.0000  -0.0000  -0.0000  -0.0000

          k = 0.0000 0.5329 0.2899 (  2523 PWs)   bands (ev):

   -65.6924 -32.7061 -32.6755 -32.6459   0.9789   2.3467   6.1973   7.2619
     8.8584  14.5205  18.5814  18.7309

     occupation numbers 
     1.0000   1.0000   1.0000   1.0000   1.0000   1.0000   1.0000   1.0000
     1.0000  -0.0000  -0.0000  -0.0000

          k = 0.0000 0.5329 0.3865 (  2518 PWs)   bands (ev):

   -65.6924 -32.7059 -32.6754 -32.6474   1.2540   2.5819   5.4986   7.3286
     8.1858  14.8954  18.0877  18.1876

     occupation numbers 
     1.0000   1.0000   1.0000   1.0000   1.0000   1.0000   1.0000   1.0000
     1.0000  -0.0000  -0.0000  -0.0000

          k = 0.0769 0.1332 0.0000 (  2547 PWs)   bands (ev):

   -65.6956 -32.6728 -32.6679 -32.6460  -2.9551   6.4569   8.2711   8.8147
    10.9974  15.5690  16.3794  18.1283

     occupation numbers 
     1.0000   1.0000   1.0000   1.0000   1.0000   1.0000   1.0000   1.0000
    -0.0000  -0.0000  -0.0000  -0.0000

          k = 0.0769 0.1332 0.0966 (  2548 PWs)   bands (ev):

   -65.6955 -32.6728 -32.6678 -32.6468  -2.8506   5.6695   8.3206   8.8592
    12.0180  15.6339  16.3775  17.4196

     occupation numbers 
     1.0000   1.0000   1.0000   1.0000   1.0000   1.0000   1.0000   1.0000
    -0.0000  -0.0000  -0.0000  -0.0000

          k = 0.0769 0.1332 0.1933 (  2548 PWs)   bands (ev):

   -65.6955 -32.6726 -32.6676 -32.6489  -2.5535   4.2579   8.4524   8.9637
    14.1094  15.8373  16.1829  16.9044

     occupation numbers 
     1.0000   1.0000   1.0000   1.0000   1.0000   1.0000   1.0000   1.0000
    -0.0000  -0.0000  -0.0000  -0.0000

          k = 0.0769 0.1332 0.2899 (  2550 PWs)   bands (ev):

   -65.6954 -32.6724 -32.6675 -32.6514  -2.1297   2.9723   8.6154   9.0857
    15.6535  15.7560  16.8431  16.8842

     occupation numbers 
     1.0000   1.0000   1.0000   1.0000   1.0000   1.0000   1.0000   1.0009
    -0.0000  -0.0000  -0.0000  -0.0000

          k = 0.0769 0.1332 0.3865 (  2548 PWs)   bands (ev):

   -65.6953 -32.6723 -32.6673 -32.6530  -1.7626   2.1549   8.7309   9.1689
    15.2856  16.0105  16.9529  18.8234

     occupation numbers 
     1.0000   1.0000   1.0000   1.0000   1.0000   1.0000   1.0000  -0.0000
    -0.0000  -0.0000  -0.0000  -0.0000

          k = 0.0769 0.2221 0.0000 (  2534 PWs)   bands (ev):

   -65.6949 -32.6805 -32.6700 -32.6448  -2.5427   6.8573   6.9787   8.0700
    11.3978  15.3876  16.9578  17.1426

     occupation numbers 
     1.0000   1.0000   1.0000   1.0000   1.0000   1.0000   1.0000   1.0000
    -0.0000  -0.0000  -0.0000  -0.0000

          k = 0.0769 0.2221 0.0966 (  2531 PWs)   bands (ev):

   -65.6948 -32.6804 -32.6700 -32.6456  -2.4405   6.0769   7.0396   8.1172
    12.3953  15.4240  16.2078  17.4896

     occupation numbers 
     1.0000   1.0000   1.0000   1.0000   1.0000   1.0000   1.0000   1.0000
    -0.0000  -0.0000  -0.0000  -0.0000

          k = 0.0769 0.2221 0.1933 (  2542 PWs)   bands (ev):

   -65.6948 -32.6802 -32.6698 -32.6477  -2.1504   4.6845   7.1931   8.2243
    14.3745  15.0262  15.8968  17.7063

     occupation numbers 
     1.0000   1.0000   1.0000   1.0000   1.0000   1.0000   1.0000   1.0000
    -0.0000  -0.0000  -0.0000  -0.0000

          k = 0.0769 0.2221 0.2899 (  2551 PWs)   bands (ev):

   -65.6947 -32.6800 -32.6696 -32.6501  -1.7392   3.4190   7.3865   8.3493
    14.1541  15.7539  17.1759  17.8918

     occupation numbers 
     1.0000   1.0000   1.0000   1.0000   1.0000   1.0000   1.0000   1.0000
    -0.0000  -0.0000  -0.0000  -0.0000

          k = 0.0769 0.2221 0.3865 (  2551 PWs)   bands (ev):

   -65.6946 -32.6798 -32.6695 -32.6517  -1.3866   2.6197   7.5269   8.4350
    13.6730  16.0352  18.0049  18.3874

     occupation numbers 
     1.0000   1.0000   1.0000   1.0000   1.0000   1.0000   1.0000   1.0000
    -0.0000  -0.0000  -0.0000  -0.0000

          k = 0.0769 0.3109 0.0000 (  2530 PWs)   bands (ev):

   -65.6940 -32.6897 -32.6727 -32.6434  -1.9300   5.4464   7.4288   7.4451
    11.9640  14.9660  15.5319  17.8922

     occupation numbers 
     1.0000   1.0000   1.0000   1.0000   1.0000   1.0000   1.0000   1.0000
    -0.0000  -0.0000  -0.0000  -0.0000

          k = 0.0769 0.3109 0.0966 (  2533 PWs)   bands (ev):

   -65.6940 -32.6896 -32.6726 -32.6442  -1.8311   5.5079   6.6856   7.4784
    12.9091  14.6115  15.3239  18.4075

     occupation numbers 
     1.0000   1.0000   1.0000   1.0000   1.0000   1.0000   1.0000   1.0000
    -0.0000  -0.0000  -0.0000  -0.0000

          k = 0.0769 0.3109 0.1933 (  2538 PWs)   bands (ev):

   -65.6939 -32.6894 -32.6724 -32.6462  -1.5513   5.2938   5.7127   7.5822
    13.4267  14.7906  15.7655  18.8780

     occupation numbers 
     1.0000   1.0000   1.0000   1.0000   1.0000   1.0000   1.0000   1.0000
    -0.0000  -0.0000  -0.0000  -0.0000

          k = 0.0769 0.3109 0.2899 (  2545 PWs)   bands (ev):

   -65.6938 -32.6891 -32.6722 -32.6486  -1.1577   4.0746   5.9203   7.7077
    12.4934  15.5228  17.4930  18.4009

     occupation numbers 
     1.0000   1.0000   1.0000   1.0000   1.0000   1.0000   1.0000   1.0000
    -0.0000  -0.0000  -0.0000  -0.0000

          k = 0.0769 0.3109 0.3865 (  2547 PWs)   bands (ev):

   -65.6938 -32.6889 -32.6721 -32.6501  -0.8252   3.3019   6.0855   7.7946
    11.9378  15.8302  17.4632  19.5076

     occupation numbers 
     1.0000   1.0000   1.0000   1.0000   1.0000   1.0000   1.0000   1.0000
    -0.0000  -0.0000  -0.0000  -0.0000

          k = 0.0769 0.3997 0.0000 (  2531 PWs)   bands (ev):

   -65.6932 -32.6983 -32.6752 -32.6421  -1.1252   3.8991   6.9496   8.1906
    12.6469  14.0668  14.6067  17.5652

     occupation numbers 
     1.0000   1.0000   1.0000   1.0000   1.0000   1.0000   1.0000   1.0000
    -0.0000  -0.0000  -0.0000  -0.0000

          k = 0.0769 0.3997 0.0966 (  2535 PWs)   bands (ev):

   -65.6932 -32.6982 -32.6751 -32.6429  -1.0305   3.9703   6.9823   7.4687
    13.0278  13.7401  14.9431  18.2791

     occupation numbers 
     1.0000   1.0000   1.0000   1.0000   1.0000   1.0000   1.0000   1.0000
    -0.0000  -0.0000  -0.0000  -0.0000

          k = 0.0769 0.3997 0.1933 (  2539 PWs)   bands (ev):

   -65.6931 -32.6979 -32.6749 -32.6449  -0.7637   4.1648   6.1268   7.1032
    11.9034  14.7659  16.1032  18.5531

     occupation numbers 
     1.0000   1.0000   1.0000   1.0000   1.0000   1.0000   1.0000   1.0000
    -0.0000  -0.0000  -0.0000  -0.0000

          k = 0.0769 0.3997 0.2899 (  2543 PWs)   bands (ev):

   -65.6931 -32.6977 -32.6747 -32.6471  -0.3920   4.4131   4.9364   7.2260
    10.8588  15.2474  17.3271  18.5803

     occupation numbers 
     1.0000   1.0000   1.0000   1.0000   1.0000   1.0000   1.0000   1.0000
    -0.0000  -0.0000  -0.0000  -0.0000

          k = 0.0769 0.3997 0.3865 (  2534 PWs)   bands (ev):

   -65.6930 -32.6975 -32.6746 -32.6486  -0.0831   4.1725   4.6265   7.3130
    10.2490  15.5968  16.7885  20.2622

     occupation numbers 
     1.0000   1.0000   1.0000   1.0000   1.0000   1.0000   1.0000   1.0000
    -0.0000  -0.0000  -0.0000  -0.0000

          k = 0.0769 0.4885 0.0000 (  2540 PWs)   bands (ev):

   -65.6927 -32.7044 -32.6770 -32.6411  -0.1465   2.4501   6.6549   8.9922
    12.7896  13.3080  14.4246  16.7771

     occupation numbers 
     1.0000   1.0000   1.0000   1.0000   1.0000   1.0000   1.0000   1.0000
    -0.0000  -0.0000  -0.0000  -0.0000

          k = 0.0769 0.4885 0.0966 (  2536 PWs)   bands (ev):

   -65.6927 -32.7043 -32.6769 -32.6419  -0.0569   2.5285   6.6937   8.3035
    11.8649  14.0196  15.0367  17.5059

     occupation numbers 
     1.0000   1.0000   1.0000   1.0000   1.0000   1.0000   1.0000   1.0000
    -0.0000  -0.0000  -0.0000  -0.0000

          k = 0.0769 0.4885 0.1933 (  2533 PWs)   bands (ev):

   -65.6926 -32.7040 -32.6767 -32.6439   0.1946   2.7448   6.7859   7.0416
    10.5354  14.6115  16.7653  18.0801

     occupation numbers 
     1.0000   1.0000   1.0000   1.0000   1.0000   1.0000   1.0000   1.0000
    -0.0000  -0.0000  -0.0000  -0.0000

          k = 0.0769 0.4885 0.2899 (  2524 PWs)   bands (ev):

   -65.6925 -32.7037 -32.6765 -32.6461   0.5417   3.0318   5.8682   6.9283
     9.4154  15.0468  17.0341  19.1824

     occupation numbers 
     1.0000   1.0000   1.0000   1.0000   1.0000   1.0000   1.0000   1.0000
    -0.0000  -0.0000  -0.0000  -0.0000

          k = 0.0769 0.4885 0.3865 (  2524 PWs)   bands (ev):

   -65.6924 -32.7036 -32.6763 -32.6476   0.8257   3.2550   5.1549   7.0158
     8.7601  15.4294  16.3913  20.1791

     occupation numbers 
     1.0000   1.0000   1.0000   1.0000   1.0000   1.0000   1.0000   1.0000
     1.0000  -0.0000  -0.0000  -0.0000

          k = 0.0769 0.5774 0.0000 (  2522 PWs)   bands (ev):

   -65.6925 -32.7066 -32.6776 -32.6408   0.7428   1.4006   6.5556   9.4404
    12.1763  13.5985  14.4369  16.3378

     occupation numbers 
     1.0000   1.0000   1.0000   1.0000   1.0000   1.0000   1.0000  -0.0000
    -0.0000  -0.0000  -0.0000  -0.0000

          k = 0.0769 0.5774 0.0966 (  2526 PWs)   bands (ev):

   -65.6925 -32.7065 -32.6775 -32.6415   0.8266   1.4855   6.5948   8.7941
    11.2269  14.0732  15.3286  17.0228

     occupation numbers 
     1.0000   1.0000   1.0000   1.0000   1.0000   1.0000   1.0000   1.0000
    -0.0000  -0.0000  -0.0000  -0.0000

          k = 0.0769 0.5774 0.1933 (  2534 PWs)   bands (ev):

   -65.6924 -32.7062 -32.6773 -32.6435   1.0626   1.7189   6.6980   7.5752
     9.8265  14.5461  17.2754  17.7294

     occupation numbers 
     1.0000   1.0000   1.0000   1.0000   1.0000   1.0000   1.0000   1.0000
    -0.0000  -0.0000  -0.0000  -0.0000

          k = 0.0769 0.5774 0.2899 (  2529 PWs)   bands (ev):

   -65.6923 -32.7059 -32.6771 -32.6457   1.3904   2.0269   6.4591   6.8240
     8.6574  14.9747  16.9283  19.5650

     occupation numbers 
     1.0000   1.0000   1.0000   1.0000   1.0000   1.0000   1.0000   1.0000
     1.0000  -0.0000  -0.0000  -0.0000

          k = 0.0769 0.5774 0.3865 (  2528 PWs)   bands (ev):

   -65.6922 -32.7057 -32.6770 -32.6472   1.6609   2.2633   5.7708   6.9147
     7.9716  15.3691  16.2611  20.1020

     occupation numbers 
     1.0000   1.0000   1.0000   1.0000   1.0000   1.0000   1.0000   1.0000
     1.0000  -0.0000  -0.0000  -0.0000

          k = 0.1538 0.2665 0.0000 (  2531 PWs)   bands (ev):

   -65.6941 -32.6876 -32.6731 -32.6436  -2.0317   6.0131   6.9921   7.3503
    11.9211  15.8126  16.1242  16.7444

     occupation numbers 
     1.0000   1.0000   1.0000   1.0000   1.0000   1.0000   1.0000   1.0000
    -0.0000  -0.0000  -0.0000  -0.0000

          k = 0.1538 0.2665 0.0966 (  2537 PWs)   bands (ev):

   -65.6941 -32.6875 -32.6730 -32.6444  -1.9323   6.0752   6.5605   7.0740
    12.9033  14.9801  16.1964  17.2756

     occupation numbers 
     1.0000   1.0000   1.0000   1.0000   1.0000   1.0000   1.0000   1.0000
    -0.0000  -0.0000  -0.0000  -0.0000

          k = 0.1538 0.2665 0.1933 (  2534 PWs)   bands (ev):

   -65.6940 -32.6873 -32.6729 -32.6465  -1.6508   5.2068   6.2440   7.1812
    13.8223  14.8989  16.4279  17.7575

     occupation numbers 
     1.0000   1.0000   1.0000   1.0000   1.0000   1.0000   1.0000   1.0000
    -0.0000  -0.0000  -0.0000  -0.0000

          k = 0.1538 0.2665 0.2899 (  2544 PWs)   bands (ev):

   -65.6940 -32.6870 -32.6727 -32.6488  -1.2543   3.9678   6.4613   7.3228
    12.8690  16.3435  17.1811  18.0700

     occupation numbers 
     1.0000   1.0000   1.0000   1.0000   1.0000   1.0000   1.0000   1.0000
    -0.0000  -0.0000  -0.0000  -0.0000

          k = 0.1538 0.2665 0.3865 (  2550 PWs)   bands (ev):

   -65.6939 -32.6869 -32.6725 -32.6503  -0.9186   3.1901   6.6226   7.4215
    12.3232  16.6667  16.9554  18.2489

     occupation numbers 
     1.0000   1.0000   1.0000   1.0000   1.0000   1.0000   1.0000   1.0000
    -0.0000  -0.0000  -0.0000  -0.0000

          k = 0.1538 0.3553 0.0000 (  2541 PWs)   bands (ev):

   -65.6934 -32.6948 -32.6767 -32.6423  -1.3252   4.7320   6.1954   8.0204
    12.5997  14.5165  15.9060  17.2448

     occupation numbers 
     1.0000   1.0000   1.0000   1.0000   1.0000   1.0000   1.0000   1.0000
    -0.0000  -0.0000  -0.0000  -0.0000

          k = 0.1538 0.3553 0.0966 (  2541 PWs)   bands (ev):

   -65.6934 -32.6947 -32.6766 -32.6431  -1.2295   4.7993   6.2370   7.2936
    13.5044  13.7733  16.1464  17.7267

     occupation numbers 
     1.0000   1.0000   1.0000   1.0000   1.0000   1.0000   1.0000   1.0000
    -0.0000  -0.0000  -0.0000  -0.0000

          k = 0.1538 0.3553 0.1933 (  2537 PWs)   bands (ev):

   -65.6933 -32.6945 -32.6764 -32.6451  -0.9595   4.9817   5.9024   6.4255
    12.4808  15.4801  16.3526  17.8886

     occupation numbers 
     1.0000   1.0000   1.0000   1.0000   1.0000   1.0000   1.0000   1.0000
    -0.0000  -0.0000  -0.0000  -0.0000

          k = 0.1538 0.3553 0.2899 (  2540 PWs)   bands (ev):

   -65.6932 -32.6942 -32.6762 -32.6474  -0.5826   4.7083   5.2354   6.5566
    11.4572  16.0823  16.8095  18.4375

     occupation numbers 
     1.0000   1.0000   1.0000   1.0000   1.0000   1.0000   1.0000   1.0000
    -0.0000  -0.0000  -0.0000  -0.0000

          k = 0.1538 0.3553 0.3865 (  2541 PWs)   bands (ev):

   -65.6931 -32.6940 -32.6760 -32.6489  -0.2682   3.9651   5.4119   6.6661
    10.8657  15.7170  16.9514  19.3018

     occupation numbers 
     1.0000   1.0000   1.0000   1.0000   1.0000   1.0000   1.0000   1.0000
    -0.0000  -0.0000  -0.0000  -0.0000

          k = 0.1538 0.4441 0.0000 (  2537 PWs)   bands (ev):

   -65.6928 -32.7007 -32.6797 -32.6412  -0.4353   3.3158   5.7361   8.8202
    13.2251  13.3919  15.4444  17.2134

     occupation numbers 
     1.0000   1.0000   1.0000   1.0000   1.0000   1.0000   1.0000   1.0000
    -0.0000  -0.0000  -0.0000  -0.0000

          k = 0.1538 0.4441 0.0966 (  2539 PWs)   bands (ev):

   -65.6927 -32.7006 -32.6796 -32.6420  -0.3442   3.3897   5.7864   8.1123
    12.4093  14.3349  15.8111  17.5990

     occupation numbers 
     1.0000   1.0000   1.0000   1.0000   1.0000   1.0000   1.0000   1.0000
    -0.0000  -0.0000  -0.0000  -0.0000

          k = 0.1538 0.4441 0.1933 (  2525 PWs)   bands (ev):

   -65.6927 -32.7003 -32.6794 -32.6440  -0.0881   3.5929   5.9157   6.8225
    11.1321  15.7644  16.3022  17.4738

     occupation numbers 
     1.0000   1.0000   1.0000   1.0000   1.0000   1.0000   1.0000   1.0000
    -0.0000  -0.0000  -0.0000  -0.0000

          k = 0.1538 0.4441 0.2899 (  2528 PWs)   bands (ev):

   -65.6926 -32.7000 -32.6792 -32.6462   0.2658   3.8613   5.6148   6.1194
    10.0493  15.4368  16.6986  19.0287

     occupation numbers 
     1.0000   1.0000   1.0000   1.0000   1.0000   1.0000   1.0000   1.0000
    -0.0000  -0.0000  -0.0000  -0.0000

          k = 0.1538 0.4441 0.3865 (  2536 PWs)   bands (ev):

   -65.6925 -32.6999 -32.6791 -32.6477   0.5565   4.0694   4.9037   6.2270
     9.4168  14.9803  16.8414  20.8135

     occupation numbers 
     1.0000   1.0000   1.0000   1.0000   1.0000   1.0000   1.0000   1.0000
    -0.0000  -0.0000  -0.0000  -0.0000

          k = 0.1538 0.5329 0.0000 (  2544 PWs)   bands (ev):

   -65.6924 -32.7039 -32.6815 -32.6406   0.5919   1.9975   5.5180   9.5572
    12.2185  14.2168  14.9261  16.8313

     occupation numbers 
     1.0000   1.0000   1.0000   1.0000   1.0000   1.0000   1.0000  -0.0000
    -0.0000  -0.0000  -0.0000  -0.0000

          k = 0.1538 0.5329 0.0966 (  2532 PWs)   bands (ev):

   -65.6924 -32.7038 -32.6814 -32.6414   0.6776   2.0780   5.5700   8.8898
    11.3773  15.0392  15.5554  17.0569

     occupation numbers 
     1.0000   1.0000   1.0000   1.0000   1.0000   1.0000   1.0000   1.0000
    -0.0000  -0.0000  -0.0000  -0.0000

          k = 0.1538 0.5329 0.1933 (  2532 PWs)   bands (ev):

   -65.6923 -32.7036 -32.6812 -32.6434   0.9176   2.3001   5.7090   7.6482
    10.0338  15.5953  16.6217  17.3992

     occupation numbers 
     1.0000   1.0000   1.0000   1.0000   1.0000   1.0000   1.0000   1.0000
    -0.0000  -0.0000  -0.0000  -0.0000

          k = 0.1538 0.5329 0.2899 (  2521 PWs)   bands (ev):

   -65.6922 -32.7033 -32.6809 -32.6456   1.2478   2.5954   5.8825   6.5208
     8.8942  15.0997  16.6162  19.5778

     occupation numbers 
     1.0000   1.0000   1.0000   1.0000   1.0000   1.0000   1.0000   1.0000
     1.0000  -0.0000  -0.0000  -0.0000

          k = 0.1538 0.5329 0.3865 (  2528 PWs)   bands (ev):

   -65.6922 -32.7031 -32.6808 -32.6470   1.5163   2.8248   5.8217   6.0165
     8.2227  14.6228  16.7537  21.6033

     occupation numbers 
     1.0000   1.0000   1.0000   1.0000   1.0000   1.0000   1.0000   1.0000
     1.0000  -0.0000  -0.0000  -0.0000

          k = 0.2308 0.3997 0.0000 (  2539 PWs)   bands (ev):

   -65.6928 -32.6985 -32.6815 -32.6413  -0.5329   3.9629   5.0341   8.7581
    13.3620  13.4246  16.3549  17.2437

     occupation numbers 
     1.0000   1.0000   1.0000   1.0000   1.0000   1.0000   1.0000   1.0000
    -0.0000  -0.0000  -0.0000  -0.0000

          k = 0.2308 0.3997 0.0966 (  2539 PWs)   bands (ev):

   -65.6927 -32.6984 -32.6814 -32.6421  -0.4413   4.0344   5.0895   8.0435
    12.6674  14.3023  16.9782  17.1336

     occupation numbers 
     1.0000   1.0000   1.0000   1.0000   1.0000   1.0000   1.0000   1.0000
    -0.0000  -0.0000  -0.0000  -0.0000

          k = 0.2308 0.3997 0.1933 (  2534 PWs)   bands (ev):

   -65.6927 -32.6982 -32.6812 -32.6440  -0.1837   4.2319   5.2343   6.7436
    11.4198  15.9481  16.3044  18.2955

     occupation numbers 
     1.0000   1.0000   1.0000   1.0000   1.0000   1.0000   1.0000   1.0000
    -0.0000  -0.0000  -0.0000  -0.0000

          k = 0.2308 0.3997 0.2899 (  2528 PWs)   bands (ev):

   -65.6926 -32.6979 -32.6810 -32.6463   0.1726   4.4939   5.3537   5.6303
    10.3605  15.0065  17.8199  19.0317

     occupation numbers 
     1.0000   1.0000   1.0000   1.0000   1.0000   1.0000   1.0000   1.0000
    -0.0000  -0.0000  -0.0000  -0.0000

          k = 0.2308 0.3997 0.3865 (  2532 PWs)   bands (ev):

   -65.6925 -32.6978 -32.6808 -32.6478   0.4655   4.6962   4.8105   5.5787
     9.7426  14.4320  18.1732  19.3611

     occupation numbers 
     1.0000   1.0000   1.0000   1.0000   1.0000   1.0000   1.0000   1.0000
    -0.0000  -0.0000  -0.0000  -0.0000

          k = 0.2308 0.4885 0.0000 (  2541 PWs)   bands (ev):

   -65.6923 -32.7005 -32.6857 -32.6405   0.4249   2.8665   4.4408   9.5893
    12.3547  14.1881  15.8205  17.6133

     occupation numbers 
     1.0000   1.0000   1.0000   1.0000   1.0000   1.0000   1.0000  -0.0000
    -0.0000  -0.0000  -0.0000  -0.0000

          k = 0.2308 0.4885 0.0966 (  2539 PWs)   bands (ev):

   -65.6923 -32.7004 -32.6856 -32.6413   0.5116   2.9424   4.5019   8.8969
    11.6096  15.1045  16.5500  16.8625

     occupation numbers 
     1.0000   1.0000   1.0000   1.0000   1.0000   1.0000   1.0000   1.0000
    -0.0000  -0.0000  -0.0000  -0.0000

          k = 0.2308 0.4885 0.1933 (  2536 PWs)   bands (ev):

   -65.6922 -32.7001 -32.6854 -32.6433   0.7546   3.1523   4.6659   7.6282
    10.3432  15.3636  16.9777  17.9670

     occupation numbers 
     1.0000   1.0000   1.0000   1.0000   1.0000   1.0000   1.0000   1.0000
    -0.0000  -0.0000  -0.0000  -0.0000

          k = 0.2308 0.4885 0.2899 (  2526 PWs)   bands (ev):

   -65.6922 -32.6998 -32.6851 -32.6455   1.0880   3.4324   4.8731   6.4835
     9.2507  14.2633  18.1770  19.5287

     occupation numbers 
     1.0000   1.0000   1.0000   1.0000   1.0000   1.0000   1.0000   1.0000
    -0.0000  -0.0000  -0.0000  -0.0000

          k = 0.2308 0.4885 0.3865 (  2528 PWs)   bands (ev):

   -65.6921 -32.6996 -32.6849 -32.6470   1.3585   3.6508   5.0283   5.7789
     8.6057  13.6505  18.4732  20.6080

     occupation numbers 
     1.0000   1.0000   1.0000   1.0000   1.0000   1.0000   1.0000   1.0000
     1.0000  -0.0000  -0.0000  -0.0000

          k = 0.2308 0.5774 0.0000 (  2548 PWs)   bands (ev):

   -65.6922 -32.7009 -32.6874 -32.6403   1.2855   1.9100   4.2863  10.1249
    11.7333  14.8198  15.2991  17.6083

     occupation numbers 
     1.0000   1.0000   1.0000   1.0000   1.0000   1.0000   1.0000  -0.0000
    -0.0000  -0.0000  -0.0000  -0.0000

          k = 0.2308 0.5774 0.0966 (  2543 PWs)   bands (ev):

   -65.6922 -32.7008 -32.6873 -32.6411   1.3674   1.9907   4.3489   9.4584
    10.9734  15.7201  16.1471  16.5761

     occupation numbers 
     1.0000   1.0000   1.0000   1.0000   1.0000   1.0000   1.0000  -0.0000
    -0.0000  -0.0000  -0.0000  -0.0000

          k = 0.2308 0.5774 0.1933 (  2533 PWs)   bands (ev):

   -65.6921 -32.7006 -32.6871 -32.6430   1.5975   2.2132   4.5174   8.2268
     9.6761  15.1431  17.4808  17.6381

     occupation numbers 
     1.0000   1.0000   1.0000   1.0000   1.0000   1.0000   1.0000   1.0000
    -0.0000  -0.0000  -0.0000  -0.0000

          k = 0.2308 0.5774 0.2899 (  2526 PWs)   bands (ev):

   -65.6920 -32.7003 -32.6868 -32.6452   1.9147   2.5083   4.7314   7.1143
     8.5521  14.0157  18.1875  19.8225

     occupation numbers 
     1.0000   1.0000   1.0000   1.0000   1.0000   1.0000   1.0000   1.0000
     1.0000  -0.0000  -0.0000  -0.0000

          k = 0.2308 0.5774 0.3865 (  2522 PWs)   bands (ev):

   -65.6920 -32.7001 -32.6866 -32.6467   2.1732   2.7362   4.8901   6.4358
     7.8838  13.3931  18.4622  21.7333

     occupation numbers 
     1.0000   1.0000   1.0000   1.0000   1.0000   1.0000   1.0000   1.0000
     1.0000  -0.0000  -0.0000  -0.0000

          k = 0.3077 0.5329 0.0000 (  2536 PWs)   bands (ev):

   -65.6921 -32.6977 -32.6916 -32.6402   1.3971   2.3654   3.4962  10.4343
    11.4730  14.9197  15.5326  18.1207

     occupation numbers 
     1.0000   1.0000   1.0000   1.0000   1.0000   1.0000   1.0000  -0.0000
    -0.0000  -0.0000  -0.0000  -0.0000

          k = 0.3077 0.5329 0.0966 (  2536 PWs)   bands (ev):

   -65.6921 -32.6976 -32.6915 -32.6409   1.4791   2.4434   3.5637   9.7495
    10.7681  15.8169  16.3463  16.4258

     occupation numbers 
     1.0000   1.0000   1.0000   1.0000   1.0000   1.0000   1.0000  -0.0000
    -0.0000  -0.0000  -0.0000  -0.0000

          k = 0.3077 0.5329 0.1933 (  2523 PWs)   bands (ev):

   -65.6920 -32.6974 -32.6913 -32.6429   1.7083   2.6610   3.7443   8.5026
     9.5193  14.7641  17.7083  18.1769

     occupation numbers 
     1.0000   1.0000   1.0000   1.0000   1.0000   1.0000   1.0000   1.0000
    -0.0000  -0.0000  -0.0000  -0.0000

          k = 0.3077 0.5329 0.2899 (  2530 PWs)   bands (ev):

   -65.6919 -32.6971 -32.6910 -32.6451   2.0215   2.9563   3.9703   7.3859
     8.4206  13.5716  19.5729  19.8093

     occupation numbers 
     1.0000   1.0000   1.0000   1.0000   1.0000   1.0000   1.0000   1.0000
     1.0000  -0.0000  -0.0000  -0.0000

          k = 0.3077 0.5329 0.3865 (  2531 PWs)   bands (ev):

   -65.6919 -32.6969 -32.6908 -32.6465   2.2735   3.1917   4.1335   6.7081
     7.7637  12.9180  20.1535  20.6176

     occupation numbers 
     1.0000   1.0000   1.0000   1.0000   1.0000   1.0000   1.0000   1.0000
     1.0000  -0.0000  -0.0000  -0.0000

 ------ SPIN DOWN ----------


          k = 0.0000 0.0000 0.0000 (  2545 PWs)   bands (ev):

   -65.6961 -32.6661 -32.6661 -32.6470  -3.2664   6.1534   9.5958   9.5958
    10.7026  15.5506  15.5506  17.4362

     occupation numbers 
     1.0000   1.0000   1.0000   1.0000   1.0000   1.0000  -0.0000  -0.0000
    -0.0000  -0.0000  -0.0000  -0.0000

          k = 0.0000 0.0000 0.0966 (  2557 PWs)   bands (ev):

   -65.6961 -32.6660 -32.6660 -32.6478  -3.1602   5.3587   9.6355   9.6355
    11.7457  15.5872  15.5872  17.4081

     occupation numbers 
     1.0000   1.0000   1.0000   1.0000   1.0000   1.0000  -0.0000  -0.0000
    -0.0000  -0.0000  -0.0000  -0.0000

          k = 0.0000 0.0000 0.1933 (  2557 PWs)   bands (ev):

   -65.6960 -32.6659 -32.6659 -32.6500  -2.8576   3.9339   9.7392   9.7392
    13.9101  15.6840  15.6840  17.3385

     occupation numbers 
     1.0000   1.0000   1.0000   1.0000   1.0000   1.0000  -0.0000  -0.0000
    -0.0000  -0.0000  -0.0000  -0.0000

          k = 0.0000 0.0000 0.2899 (  2570 PWs)   bands (ev):

   -65.6960 -32.6657 -32.6657 -32.6525  -2.4241   2.6333   9.8633   9.8633
    15.8020  15.8020  16.4011  17.2621

     occupation numbers 
     1.0000   1.0000   1.0000   1.0000   1.0000   1.0000  -0.0000  -0.0000
    -0.0000  -0.0000  -0.0000  -0.0000

          k = 0.0000 0.0000 0.3865 (  2570 PWs)   bands (ev):

   -65.6959 -32.6656 -32.6656 -32.6541  -2.0454   1.8018   9.9482   9.9482
    15.8843  15.8843  17.2137  18.5743

     occupation numbers 
     1.0000   1.0000   1.0000   1.0000   1.0000   1.0000  -0.0000  -0.0000
    -0.0000  -0.0000  -0.0000  -0.0000

          k = 0.0000 0.0888 0.0000 (  2555 PWs)   bands (ev):

   -65.6959 -32.6685 -32.6667 -32.6466  -3.1624   6.2548   9.0657   9.3459
    10.7954  15.4801  16.0101  17.6546

     occupation numbers 
     1.0000   1.0000   1.0000   1.0000   1.0000   1.0000   1.0000  -0.0000
    -0.0000  -0.0000  -0.0000  -0.0000

          k = 0.0000 0.0888 0.0966 (  2558 PWs)   bands (ev):

   -65.6959 -32.6684 -32.6666 -32.6475  -3.0568   5.4626   9.1107   9.3846
    11.8312  15.5300  16.0480  17.4766

     occupation numbers 
     1.0000   1.0000   1.0000   1.0000   1.0000   1.0000   0.9680  -0.0000
    -0.0000  -0.0000  -0.0000  -0.0000

          k = 0.0000 0.0888 0.1933 (  2551 PWs)   bands (ev):

   -65.6958 -32.6682 -32.6665 -32.6496  -2.7561   4.0422   9.2272   9.4856
    13.9667  15.6762  16.1481  17.0884

     occupation numbers 
     1.0000   1.0000   1.0000   1.0000   1.0000   1.0000  -0.0000  -0.0000
    -0.0000  -0.0000  -0.0000  -0.0000

          k = 0.0000 0.0888 0.2899 (  2546 PWs)   bands (ev):

   -65.6958 -32.6681 -32.6663 -32.6521  -2.3259   2.7467   9.3681   9.6064
    15.7006  16.2702  16.5773  16.6907

     occupation numbers 
     1.0000   1.0000   1.0000   1.0000   1.0000   1.0000  -0.0000  -0.0000
    -0.0000  -0.0000  -0.0000  -0.0000

          k = 0.0000 0.0888 0.3865 (  2559 PWs)   bands (ev):

   -65.6957 -32.6679 -32.6662 -32.6537  -1.9511   1.9199   9.4659   9.6890
    15.8775  16.3555  16.4335  18.6721

     occupation numbers 
     1.0000   1.0000   1.0000   1.0000   1.0000   1.0000  -0.0000  -0.0000
    -0.0000  -0.0000  -0.0000  -0.0000

          k = 0.0000 0.1776 0.0000 (  2551 PWs)   bands (ev):

   -65.6954 -32.6750 -32.6683 -32.6457  -2.8517   6.5574   7.7912   8.7767
    11.0822  15.1477  17.2001  17.8009

     occupation numbers 
     1.0000   1.0000   1.0000   1.0000   1.0000   1.0000   1.0000   1.0000
    -0.0000  -0.0000  -0.0000  -0.0000

          k = 0.0000 0.1776 0.0966 (  2540 PWs)   bands (ev):

   -65.6953 -32.6750 -32.6682 -32.6465  -2.7478   5.7721   7.8477   8.8133
    12.0966  15.2185  17.0370  17.2405

     occupation numbers 
     1.0000   1.0000   1.0000   1.0000   1.0000   1.0000   1.0000   1.0000
    -0.0000  -0.0000  -0.0000  -0.0000

          k = 0.0000 0.1776 0.1933 (  2539 PWs)   bands (ev):

   -65.6953 -32.6748 -32.6680 -32.6486  -2.4525   4.3651   7.9899   8.9090
    14.1328  15.4454  16.1512  17.3478

     occupation numbers 
     1.0000   1.0000   1.0000   1.0000   1.0000   1.0000   1.0000   1.0000
    -0.0000  -0.0000  -0.0000  -0.0000

          k = 0.0000 0.1776 0.2899 (  2555 PWs)   bands (ev):

   -65.6952 -32.6746 -32.6679 -32.6510  -2.0319   3.0846   8.1648   9.0232
    15.1112  15.6103  16.9148  17.4797

     occupation numbers 
     1.0000   1.0000   1.0000   1.0000   1.0000   1.0000   1.0000   1.0000
    -0.0000  -0.0000  -0.0000  -0.0000

          k = 0.0000 0.1776 0.3865 (  2553 PWs)   bands (ev):

   -65.6951 -32.6745 -32.6677 -32.6526  -1.6685   2.2718   8.2896   9.1013
    14.7824  15.7524  17.5730  18.9283

     occupation numbers 
     1.0000   1.0000   1.0000   1.0000   1.0000   1.0000   1.0000   1.0311
    -0.0000  -0.0000  -0.0000  -0.0000

          k = 0.0000 0.2665 0.0000 (  2531 PWs)   bands (ev):

   -65.6946 -32.6843 -32.6705 -32.6443  -2.3376   6.2297   7.0544   8.1532
    11.5467  14.6907  16.4006  18.8236

     occupation numbers 
     1.0000   1.0000   1.0000   1.0000   1.0000   1.0000   1.0000   1.0000
    -0.0000  -0.0000  -0.0000  -0.0000

          k = 0.0000 0.2665 0.0966 (  2532 PWs)   bands (ev):

   -65.6945 -32.6842 -32.6704 -32.6451  -2.2366   6.2100   6.3678   8.1879
    12.5162  14.7538  15.7639  18.8665

     occupation numbers 
     1.0000   1.0000   1.0000   1.0000   1.0000   1.0000   1.0000   1.0000
    -0.0000  -0.0000  -0.0000  -0.0000

          k = 0.0000 0.2665 0.1933 (  2538 PWs)   bands (ev):

   -65.6945 -32.6840 -32.6703 -32.6472  -1.9500   4.8935   6.4664   8.2784
    14.0290  14.7253  15.4919  18.9769

     occupation numbers 
     1.0000   1.0000   1.0000   1.0000   1.0000   1.0000   1.0000   1.0000
    -0.0000  -0.0000  -0.0000  -0.0000

          k = 0.0000 0.2665 0.2899 (  2553 PWs)   bands (ev):

   -65.6944 -32.6838 -32.6701 -32.6496  -1.5447   3.6394   6.6737   8.3864
    13.4430  15.2241  17.3480  19.1125

     occupation numbers 
     1.0000   1.0000   1.0000   1.0000   1.0000   1.0000   1.0000   1.0000
    -0.0000  -0.0000  -0.0000  -0.0000

          k = 0.0000 0.2665 0.3865 (  2555 PWs)   bands (ev):

   -65.6943 -32.6836 -32.6700 -32.6511  -1.1990   2.8490   6.8264   8.4601
    12.9387  15.4887  19.1520  19.2169

     occupation numbers 
     1.0000   1.0000   1.0000   1.0000   1.0000   1.0000   1.0000   1.0000
    -0.0000  -0.0000  -0.0000  -0.0000

          k = 0.0000 0.3553 0.0000 (  2531 PWs)   bands (ev):

   -65.6937 -32.6941 -32.6729 -32.6428  -1.6264   4.6270   7.6209   7.7275
    12.1426  14.3052  14.8689  18.0590

     occupation numbers 
     1.0000   1.0000   1.0000   1.0000   1.0000   1.0000   1.0000   1.0000
    -0.0000  -0.0000  -0.0000  -0.0000

          k = 0.0000 0.3553 0.0966 (  2536 PWs)   bands (ev):

   -65.6937 -32.6940 -32.6728 -32.6436  -1.5291   4.6942   6.9819   7.6540
    12.9412  14.0619  14.7018  18.8189

     occupation numbers 
     1.0000   1.0000   1.0000   1.0000   1.0000   1.0000   1.0000   1.0000
    -0.0000  -0.0000  -0.0000  -0.0000

          k = 0.0000 0.3553 0.1933 (  2549 PWs)   bands (ev):

   -65.6936 -32.6938 -32.6726 -32.6457  -1.2542   4.8711   5.6409   7.7405
    12.6701  14.4201  15.7477  19.9309

     occupation numbers 
     1.0000   1.0000   1.0000   1.0000   1.0000   1.0000   1.0000   1.0000
    -0.0000  -0.0000  -0.0000  -0.0000

          k = 0.0000 0.3553 0.2899 (  2540 PWs)   bands (ev):

   -65.6935 -32.6935 -32.6724 -32.6480  -0.8691   4.3881   5.1418   7.8436
    11.7030  14.8981  17.8897  19.3066

     occupation numbers 
     1.0000   1.0000   1.0000   1.0000   1.0000   1.0000   1.0000   1.0000
    -0.0000  -0.0000  -0.0000  -0.0000

          k = 0.0000 0.3553 0.3865 (  2542 PWs)   bands (ev):

   -65.6935 -32.6933 -32.6723 -32.6495  -0.5458   3.6336   5.3142   7.9138
    11.1244  15.2152  18.7697  18.8001

     occupation numbers 
     1.0000   1.0000   1.0000   1.0000   1.0000   1.0000   1.0000   1.0000
    -0.0000  -0.0000  -0.0000  -0.0000

          k = 0.0000 0.4441 0.0000 (  2528 PWs)   bands (ev):

   -65.6930 -32.7022 -32.6749 -32.6416  -0.7289   3.0989   7.2438   8.5219
    12.7420  13.4286  14.1400  17.1687

     occupation numbers 
     1.0000   1.0000   1.0000   1.0000   1.0000   1.0000   1.0000   1.0000
    -0.0000  -0.0000  -0.0000  -0.0000

          k = 0.0000 0.4441 0.0966 (  2535 PWs)   bands (ev):

   -65.6930 -32.7021 -32.6748 -32.6424  -0.6363   3.1743   7.2760   7.8076
    12.3972  13.6059  14.6827  17.9842

     occupation numbers 
     1.0000   1.0000   1.0000   1.0000   1.0000   1.0000   1.0000   1.0000
    -0.0000  -0.0000  -0.0000  -0.0000

          k = 0.0000 0.4441 0.1933 (  2527 PWs)   bands (ev):

   -65.6929 -32.7018 -32.6746 -32.6444  -0.3757   3.3814   6.5024   7.3597
    11.1722  14.1907  16.3913  19.2924

     occupation numbers 
     1.0000   1.0000   1.0000   1.0000   1.0000   1.0000   1.0000   1.0000
    -0.0000  -0.0000  -0.0000  -0.0000

          k = 0.0000 0.4441 0.2899 (  2528 PWs)   bands (ev):

   -65.6928 -32.7015 -32.6744 -32.6467  -0.0142   3.6547   5.3193   7.4594
    10.0948  14.6517  18.4056  18.9254

     occupation numbers 
     1.0000   1.0000   1.0000   1.0000   1.0000   1.0000   1.0000   1.0000
    -0.0000  -0.0000  -0.0000  -0.0000

[...]
    13.8223  14.8989  16.4279  17.7575

     occupation numbers 
     1.0000   1.0000   1.0000   1.0000   1.0000   1.0000   1.0000   1.0000
    -0.0000  -0.0000  -0.0000  -0.0000

          k = 0.1538 0.2665 0.2899 (  2544 PWs)   bands (ev):

   -65.6940 -32.6870 -32.6727 -32.6488  -1.2543   3.9678   6.4613   7.3228
    12.8690  16.3435  17.1811  18.0700

     occupation numbers 
     1.0000   1.0000   1.0000   1.0000   1.0000   1.0000   1.0000   1.0000
    -0.0000  -0.0000  -0.0000  -0.0000

          k = 0.1538 0.2665 0.3865 (  2550 PWs)   bands (ev):

   -65.6939 -32.6869 -32.6725 -32.6503  -0.9186   3.1901   6.6226   7.4215
    12.3232  16.6667  16.9554  18.2489

     occupation numbers 
     1.0000   1.0000   1.0000   1.0000   1.0000   1.0000   1.0000   1.0000
    -0.0000  -0.0000  -0.0000  -0.0000

          k = 0.1538 0.3553 0.0000 (  2541 PWs)   bands (ev):

   -65.6934 -32.6948 -32.6767 -32.6423  -1.3252   4.7320   6.1954   8.0204
    12.5997  14.5165  15.9060  17.2448

     occupation numbers 
     1.0000   1.0000   1.0000   1.0000   1.0000   1.0000   1.0000   1.0000
    -0.0000  -0.0000  -0.0000  -0.0000

          k = 0.1538 0.3553 0.0966 (  2541 PWs)   bands (ev):

   -65.6934 -32.6947 -32.6766 -32.6431  -1.2295   4.7993   6.2370   7.2936
    13.5044  13.7733  16.1464  17.7267

     occupation numbers 
     1.0000   1.0000   1.0000   1.0000   1.0000   1.0000   1.0000   1.0000
    -0.0000  -0.0000  -0.0000  -0.0000

          k = 0.1538 0.3553 0.1933 (  2537 PWs)   bands (ev):

   -65.6933 -32.6945 -32.6764 -32.6451  -0.9595   4.9817   5.9024   6.4255
    12.4808  15.4801  16.3526  17.8886

     occupation numbers 
     1.0000   1.0000   1.0000   1.0000   1.0000   1.0000   1.0000   1.0000
    -0.0000  -0.0000  -0.0000  -0.0000

          k = 0.1538 0.3553 0.2899 (  2540 PWs)   bands (ev):

   -65.6932 -32.6942 -32.6762 -32.6474  -0.5826   4.7083   5.2354   6.5566
    11.4572  16.0823  16.8095  18.4375

     occupation numbers 
     1.0000   1.0000   1.0000   1.0000   1.0000   1.0000   1.0000   1.0000
    -0.0000  -0.0000  -0.0000  -0.0000

          k = 0.1538 0.3553 0.3865 (  2541 PWs)   bands (ev):

   -65.6931 -32.6940 -32.6760 -32.6489  -0.2682   3.9651   5.4119   6.6661
    10.8657  15.7170  16.9514  19.3018

     occupation numbers 
     1.0000   1.0000   1.0000   1.0000   1.0000   1.0000   1.0000   1.0000
    -0.0000  -0.0000  -0.0000  -0.0000

          k = 0.1538 0.4441 0.0000 (  2537 PWs)   bands (ev):

   -65.6928 -32.7007 -32.6797 -32.6412  -0.4353   3.3158   5.7361   8.8202
    13.2251  13.3919  15.4444  17.2134

     occupation numbers 
     1.0000   1.0000   1.0000   1.0000   1.0000   1.0000   1.0000   1.0000
    -0.0000  -0.0000  -0.0000  -0.0000

          k = 0.1538 0.4441 0.0966 (  2539 PWs)   bands (ev):

   -65.6927 -32.7006 -32.6796 -32.6420  -0.3442   3.3897   5.7864   8.1123
    12.4093  14.3349  15.8111  17.5990

     occupation numbers 
     1.0000   1.0000   1.0000   1.0000   1.0000   1.0000   1.0000   1.0000
    -0.0000  -0.0000  -0.0000  -0.0000

          k = 0.1538 0.4441 0.1933 (  2525 PWs)   bands (ev):

   -65.6927 -32.7003 -32.6794 -32.6440  -0.0881   3.5929   5.9157   6.8225
    11.1321  15.7644  16.3022  17.4738

     occupation numbers 
     1.0000   1.0000   1.0000   1.0000   1.0000   1.0000   1.0000   1.0000
    -0.0000  -0.0000  -0.0000  -0.0000

          k = 0.1538 0.4441 0.2899 (  2528 PWs)   bands (ev):

   -65.6926 -32.7000 -32.6792 -32.6462   0.2658   3.8613   5.6148   6.1194
    10.0493  15.4368  16.6986  19.0287

     occupation numbers 
     1.0000   1.0000   1.0000   1.0000   1.0000   1.0000   1.0000   1.0000
    -0.0000  -0.0000  -0.0000  -0.0000

          k = 0.1538 0.4441 0.3865 (  2536 PWs)   bands (ev):

   -65.6925 -32.6999 -32.6791 -32.6477   0.5565   4.0694   4.9037   6.2270
     9.4168  14.9803  16.8414  20.8136

     occupation numbers 
     1.0000   1.0000   1.0000   1.0000   1.0000   1.0000   1.0000   1.0000
    -0.0000  -0.0000  -0.0000  -0.0000

          k = 0.1538 0.5329 0.0000 (  2544 PWs)   bands (ev):

   -65.6924 -32.7039 -32.6815 -32.6406   0.5919   1.9975   5.5180   9.5572
    12.2185  14.2168  14.9261  16.8313

     occupation numbers 
     1.0000   1.0000   1.0000   1.0000   1.0000   1.0000   1.0000  -0.0000
    -0.0000  -0.0000  -0.0000  -0.0000

          k = 0.1538 0.5329 0.0966 (  2532 PWs)   bands (ev):

   -65.6924 -32.7038 -32.6814 -32.6414   0.6776   2.0780   5.5700   8.8898
    11.3773  15.0392  15.5554  17.0569

     occupation numbers 
     1.0000   1.0000   1.0000   1.0000   1.0000   1.0000   1.0000   1.0000
    -0.0000  -0.0000  -0.0000  -0.0000

          k = 0.1538 0.5329 0.1933 (  2532 PWs)   bands (ev):

   -65.6923 -32.7036 -32.6812 -32.6434   0.9176   2.3001   5.7090   7.6482
    10.0338  15.5953  16.6217  17.3992

     occupation numbers 
     1.0000   1.0000   1.0000   1.0000   1.0000   1.0000   1.0000   1.0000
    -0.0000  -0.0000  -0.0000  -0.0000

          k = 0.1538 0.5329 0.2899 (  2521 PWs)   bands (ev):

   -65.6922 -32.7033 -32.6809 -32.6456   1.2478   2.5954   5.8825   6.5208
     8.8942  15.0997  16.6162  19.5778

     occupation numbers 
     1.0000   1.0000   1.0000   1.0000   1.0000   1.0000   1.0000   1.0000
     1.0000  -0.0000  -0.0000  -0.0000

          k = 0.1538 0.5329 0.3865 (  2528 PWs)   bands (ev):

   -65.6922 -32.7031 -32.6808 -32.6470   1.5163   2.8248   5.8217   6.0165
     8.2227  14.6228  16.7537  21.6032

     occupation numbers 
     1.0000   1.0000   1.0000   1.0000   1.0000   1.0000   1.0000   1.0000
     1.0000  -0.0000  -0.0000  -0.0000

          k = 0.2308 0.3997 0.0000 (  2539 PWs)   bands (ev):

   -65.6928 -32.6985 -32.6815 -32.6413  -0.5329   3.9629   5.0341   8.7581
    13.3620  13.4247  16.3549  17.2437

     occupation numbers 
     1.0000   1.0000   1.0000   1.0000   1.0000   1.0000   1.0000   1.0000
    -0.0000  -0.0000  -0.0000  -0.0000

          k = 0.2308 0.3997 0.0966 (  2539 PWs)   bands (ev):

   -65.6927 -32.6984 -32.6814 -32.6421  -0.4413   4.0344   5.0895   8.0435
    12.6674  14.3023  16.9782  17.1336

     occupation numbers 
     1.0000   1.0000   1.0000   1.0000   1.0000   1.0000   1.0000   1.0000
    -0.0000  -0.0000  -0.0000  -0.0000

          k = 0.2308 0.3997 0.1933 (  2534 PWs)   bands (ev):

   -65.6927 -32.6982 -32.6812 -32.6440  -0.1837   4.2319   5.2343   6.7436
    11.4198  15.9481  16.3044  18.2955

     occupation numbers 
     1.0000   1.0000   1.0000   1.0000   1.0000   1.0000   1.0000   1.0000
    -0.0000  -0.0000  -0.0000  -0.0000

          k = 0.2308 0.3997 0.2899 (  2528 PWs)   bands (ev):

   -65.6926 -32.6979 -32.6810 -32.6463   0.1726   4.4939   5.3537   5.6303
    10.3605  15.0065  17.8199  19.0317

     occupation numbers 
     1.0000   1.0000   1.0000   1.0000   1.0000   1.0000   1.0000   1.0000
    -0.0000  -0.0000  -0.0000  -0.0000

          k = 0.2308 0.3997 0.3865 (  2532 PWs)   bands (ev):

   -65.6925 -32.6978 -32.6808 -32.6478   0.4655   4.6962   4.8105   5.5787
     9.7426  14.4320  18.1732  19.3611

     occupation numbers 
     1.0000   1.0000   1.0000   1.0000   1.0000   1.0000   1.0000   1.0000
    -0.0000  -0.0000  -0.0000  -0.0000

          k = 0.2308 0.4885 0.0000 (  2541 PWs)   bands (ev):

   -65.6923 -32.7005 -32.6857 -32.6405   0.4249   2.8665   4.4408   9.5893
    12.3547  14.1881  15.8205  17.6133

     occupation numbers 
     1.0000   1.0000   1.0000   1.0000   1.0000   1.0000   1.0000  -0.0000
    -0.0000  -0.0000  -0.0000  -0.0000

          k = 0.2308 0.4885 0.0966 (  2539 PWs)   bands (ev):

   -65.6923 -32.7004 -32.6856 -32.6413   0.5116   2.9424   4.5019   8.8969
    11.6096  15.1045  16.5500  16.8625

     occupation numbers 
     1.0000   1.0000   1.0000   1.0000   1.0000   1.0000   1.0000   1.0000
    -0.0000  -0.0000  -0.0000  -0.0000

          k = 0.2308 0.4885 0.1933 (  2536 PWs)   bands (ev):

   -65.6922 -32.7001 -32.6854 -32.6433   0.7546   3.1523   4.6659   7.6282
    10.3432  15.3636  16.9777  17.9670

     occupation numbers 
     1.0000   1.0000   1.0000   1.0000   1.0000   1.0000   1.0000   1.0000
    -0.0000  -0.0000  -0.0000  -0.0000

          k = 0.2308 0.4885 0.2899 (  2526 PWs)   bands (ev):

   -65.6922 -32.6998 -32.6851 -32.6455   1.0880   3.4324   4.8731   6.4835
     9.2507  14.2633  18.1770  19.5287

     occupation numbers 
     1.0000   1.0000   1.0000   1.0000   1.0000   1.0000   1.0000   1.0000
    -0.0000  -0.0000  -0.0000  -0.0000

          k = 0.2308 0.4885 0.3865 (  2528 PWs)   bands (ev):

   -65.6921 -32.6996 -32.6849 -32.6470   1.3585   3.6508   5.0283   5.7789
     8.6057  13.6505  18.4732  20.6080

     occupation numbers 
     1.0000   1.0000   1.0000   1.0000   1.0000   1.0000   1.0000   1.0000
     1.0000  -0.0000  -0.0000  -0.0000

          k = 0.2308 0.5774 0.0000 (  2548 PWs)   bands (ev):

   -65.6922 -32.7009 -32.6874 -32.6403   1.2855   1.9100   4.2863  10.1249
    11.7333  14.8198  15.2991  17.6083

     occupation numbers 
     1.0000   1.0000   1.0000   1.0000   1.0000   1.0000   1.0000  -0.0000
    -0.0000  -0.0000  -0.0000  -0.0000

          k = 0.2308 0.5774 0.0966 (  2543 PWs)   bands (ev):

   -65.6922 -32.7008 -32.6873 -32.6411   1.3674   1.9907   4.3489   9.4584
    10.9734  15.7201  16.1471  16.5761

     occupation numbers 
     1.0000   1.0000   1.0000   1.0000   1.0000   1.0000   1.0000  -0.0000
    -0.0000  -0.0000  -0.0000  -0.0000

          k = 0.2308 0.5774 0.1933 (  2533 PWs)   bands (ev):

   -65.6921 -32.7006 -32.6871 -32.6430   1.5975   2.2132   4.5174   8.2268
     9.6761  15.1431  17.4808  17.6381

     occupation numbers 
     1.0000   1.0000   1.0000   1.0000   1.0000   1.0000   1.0000   1.0000
    -0.0000  -0.0000  -0.0000  -0.0000

          k = 0.2308 0.5774 0.2899 (  2526 PWs)   bands (ev):

   -65.6920 -32.7003 -32.6868 -32.6452   1.9147   2.5083   4.7314   7.1143
     8.5521  14.0157  18.1875  19.8225

     occupation numbers 
     1.0000   1.0000   1.0000   1.0000   1.0000   1.0000   1.0000   1.0000
     1.0000  -0.0000  -0.0000  -0.0000

          k = 0.2308 0.5774 0.3865 (  2522 PWs)   bands (ev):

   -65.6920 -32.7001 -32.6866 -32.6467   2.1732   2.7362   4.8901   6.4358
     7.8838  13.3931  18.4622  21.7333

     occupation numbers 
     1.0000   1.0000   1.0000   1.0000   1.0000   1.0000   1.0000   1.0000
     1.0000  -0.0000  -0.0000  -0.0000

          k = 0.3077 0.5329 0.0000 (  2536 PWs)   bands (ev):

   -65.6921 -32.6977 -32.6916 -32.6402   1.3971   2.3654   3.4962  10.4343
    11.4730  14.9197  15.5326  18.1206

     occupation numbers 
     1.0000   1.0000   1.0000   1.0000   1.0000   1.0000   1.0000  -0.0000
    -0.0000  -0.0000  -0.0000  -0.0000

          k = 0.3077 0.5329 0.0966 (  2536 PWs)   bands (ev):

   -65.6921 -32.6976 -32.6915 -32.6409   1.4791   2.4434   3.5637   9.7495
    10.7681  15.8169  16.3463  16.4258

     occupation numbers 
     1.0000   1.0000   1.0000   1.0000   1.0000   1.0000   1.0000  -0.0000
    -0.0000  -0.0000  -0.0000  -0.0000

          k = 0.3077 0.5329 0.1933 (  2523 PWs)   bands (ev):

   -65.6920 -32.6974 -32.6913 -32.6429   1.7083   2.6610   3.7443   8.5026
     9.5193  14.7641  17.7083  18.1769

     occupation numbers 
     1.0000   1.0000   1.0000   1.0000   1.0000   1.0000   1.0000   1.0000
    -0.0000  -0.0000  -0.0000  -0.0000

          k = 0.3077 0.5329 0.2899 (  2530 PWs)   bands (ev):

   -65.6919 -32.6971 -32.6910 -32.6451   2.0215   2.9563   3.9703   7.3859
     8.4206  13.5716  19.5729  19.8093

     occupation numbers 
     1.0000   1.0000   1.0000   1.0000   1.0000   1.0000   1.0000   1.0000
     1.0000  -0.0000  -0.0000  -0.0000

          k = 0.3077 0.5329 0.3865 (  2531 PWs)   bands (ev):

   -65.6919 -32.6969 -32.6908 -32.6465   2.2735   3.1917   4.1335   6.7081
     7.7637  12.9180  20.1535  20.6176

     occupation numbers 
     1.0000   1.0000   1.0000   1.0000   1.0000   1.0000   1.0000   1.0000
     1.0000  -0.0000  -0.0000  -0.0000

     the Fermi energy is     9.1206 ev

!    total energy              =    -130.38637284 Ry
     Harris-Foulkes estimate   =    -130.38637284 Ry
     estimated scf accuracy    <          2.8E-13 Ry

     The total energy is the sum of the following terms:

     one-electron contribution =     -76.46079042 Ry
     hartree contribution      =      40.57764339 Ry
     xc contribution           =     -20.54839470 Ry
     ewald contribution        =     -73.95483211 Ry
     smearing contrib. (-TS)   =       0.00000100 Ry

     total magnetization       =    -0.00 Bohr mag/cell
     absolute magnetization    =     0.00 Bohr mag/cell

     convergence has been achieved in  11 iterations

     Forces acting on atoms (cartesian axes, Ry/au):

     atom    1 type  2   force =    -0.00000000    0.00000000    0.00000000
     atom    2 type  1   force =     0.00000000    0.00000000    0.00000000
     atom    3 type  1   force =     0.00000000    0.00000000    0.00000000
     The non-local contrib.  to forces
     atom    1 type  2   force =     0.00000000   -0.00000000    0.00000000
     atom    2 type  1   force =     0.00000000    0.00000000    0.00000000
     atom    3 type  1   force =     0.00000000   -0.00000000    0.00000000
     The ionic contribution  to forces
     atom    1 type  2   force =    -0.00000000   -0.00000000   -0.00000000
     atom    2 type  1   force =     0.00000008   -0.00000005    0.00000000
     atom    3 type  1   force =    -0.00000008    0.00000005    0.00000000
     The local contribution  to forces
     atom    1 type  2   force =    -0.00000000   -0.00000000    0.00000000
     atom    2 type  1   force =    -0.00000000    0.00000000    0.00000000
     atom    3 type  1   force =     0.00000000   -0.00000000   -0.00000000
     The core correction contribution to forces
     atom    1 type  2   force =     0.00000000    0.00000000    0.00000000
     atom    2 type  1   force =    -0.00000000    0.00000000   -0.00000000
     atom    3 type  1   force =     0.00000000   -0.00000000    0.00000000
     The Hubbard contrib.    to forces
     atom    1 type  2   force =     0.00000000    0.00000000    0.00000000
     atom    2 type  1   force =     0.00000000    0.00000000    0.00000000
     atom    3 type  1   force =     0.00000000    0.00000000    0.00000000
     The SCF correction term to forces
     atom    1 type  2   force =    -0.00000000    0.00000000   -0.00000000
     atom    2 type  1   force =     0.00000000   -0.00000000   -0.00000000
     atom    3 type  1   force =    -0.00000000    0.00000000   -0.00000000

     Total force =     0.000000     Total SCF correction =     0.000000


     Computing stress (Cartesian axis) and pressure

          total   stress  (Ry/bohr**3)                   (kbar)     P=  -18.77
  -0.00011130   0.00000000   0.00000000        -16.37      0.00      0.00
   0.00000000  -0.00011130   0.00000000          0.00    -16.37      0.00
  -0.00000000   0.00000000  -0.00016022         -0.00      0.00    -23.57

     kinetic stress (kbar)  38264.57      0.00      0.00
                                0.00  38264.57      0.00
                                0.00      0.00  38082.97

     local   stress (kbar)  -7299.64      0.00     -0.00
                                0.00  -7299.64      0.00
                               -0.00      0.00  -6826.41

     nonloc. stress (kbar) -17856.30      0.00      0.00
                                0.00 -17856.30      0.00
                                0.00      0.00 -17792.97

     hartree stress (kbar)  10148.63     -0.00     -0.00
                               -0.00  10148.63      0.00
                               -0.00      0.00  10291.38

     exc-cor stress (kbar)  -4444.64      0.00      0.00
                                0.00  -4444.64     -0.00
                                0.00     -0.00  -4441.55

     corecor stress (kbar)   -419.40     -0.00     -0.00
                               -0.00   -419.40      0.00
                               -0.00      0.00   -406.83

     ewald   stress (kbar) -18409.61      0.00      0.00
                                0.00 -18409.61      0.00
                                0.00      0.00 -18930.17

     hubbard stress (kbar)      0.00      0.00      0.00
                                0.00      0.00      0.00
                                0.00      0.00      0.00

     london  stress (kbar)      0.00      0.00      0.00
                                0.00      0.00      0.00
                                0.00      0.00      0.00

     DFT-D3  stress (kbar)      0.00      0.00      0.00
                                0.00      0.00      0.00
                                0.00      0.00      0.00

     XDM     stress (kbar)      0.00      0.00      0.00
                                0.00      0.00      0.00
                                0.00      0.00      0.00

     dft-nl  stress (kbar)      0.00      0.00      0.00
                                0.00      0.00      0.00
                                0.00      0.00      0.00

     TS-vdW  stress (kbar)      0.00      0.00      0.00
                                0.00      0.00      0.00
                                0.00      0.00      0.00



     Writing output data file MgB2.save/
 
     init_run     :      0.12s CPU      0.56s WALL (       1 calls)
     electrons    :      1.64s CPU      1.93s WALL (       1 calls)
     forces       :      0.04s CPU      0.05s WALL (       1 calls)
     stress       :      0.11s CPU      0.11s WALL (       1 calls)

     Called by init_run:
     wfcinit      :      0.05s CPU      0.37s WALL (       1 calls)
     wfcinit:atom :      0.00s CPU      0.00s WALL (      18 calls)
     wfcinit:wfcr :      0.04s CPU      0.36s WALL (      18 calls)
     potinit      :      0.03s CPU      0.03s WALL (       1 calls)
     hinit0       :      0.03s CPU      0.13s WALL (       1 calls)

     Called by electrons:
     c_bands      :      1.26s CPU      1.49s WALL (      11 calls)
     sum_band     :      0.24s CPU      0.25s WALL (      11 calls)
     v_of_rho     :      0.11s CPU      0.11s WALL (      12 calls)
     v_h          :      0.00s CPU      0.00s WALL (      12 calls)
     v_xc         :      0.13s CPU      0.13s WALL (      14 calls)
     mix_rho      :      0.04s CPU      0.06s WALL (      11 calls)

     Called by c_bands:
     init_us_2    :      0.05s CPU      0.06s WALL (     450 calls)
     cegterg      :      1.00s CPU      1.19s WALL (     198 calls)

     Called by sum_band:

     Called by *egterg:
     h_psi        :      0.82s CPU      0.88s WALL (     650 calls)
     g_psi        :      0.01s CPU      0.01s WALL (     434 calls)
     cdiaghg      :      0.12s CPU      0.56s WALL (     632 calls)
     cegterg:over :      0.03s CPU      0.04s WALL (     434 calls)
     cegterg:upda :      0.02s CPU      0.02s WALL (     434 calls)
     cegterg:last :      0.01s CPU      0.01s WALL (     198 calls)

     Called by h_psi:
     h_psi:pot    :      0.81s CPU      0.87s WALL (     650 calls)
     h_psi:calbec :      0.03s CPU      0.05s WALL (     650 calls)
     vloc_psi     :      0.76s CPU      0.79s WALL (     650 calls)
     add_vuspsi   :      0.02s CPU      0.02s WALL (     650 calls)

     General routines
     calbec       :      0.04s CPU      0.05s WALL (     740 calls)
     fft          :      0.03s CPU      0.13s WALL (     268 calls)
     ffts         :      0.00s CPU      0.00s WALL (      22 calls)
     fftw         :      0.79s CPU      0.83s WALL (   13738 calls)
 
     Parallel routines
     fft_scatt_xy :      0.19s CPU      0.19s WALL (   14028 calls)
     fft_scatt_yz :      0.27s CPU      0.29s WALL (   14028 calls)
 
     PWSCF        :      2.07s CPU      3.43s WALL

 
   This run was terminated on:  17: 5:15  23Sep2021            

=------------------------------------------------------------------------------=
   JOB DONE.
=------------------------------------------------------------------------------=
